DF-ISE text

Info {
  version   = 1.0
  type      = xyplot
  datasets  = [
    "time"
    "cathode OuterVoltage" "cathode InnerVoltage" "cathode QuasiFermiPotential" "cathode DisplacementCurrent" "cathode eCurrent"
    "cathode hCurrent" "cathode TotalCurrent" "cathode Charge" "anode OuterVoltage" "anode InnerVoltage"
    "anode QuasiFermiPotential" "anode DisplacementCurrent" "anode eCurrent" "anode hCurrent" "anode TotalCurrent"
    "anode Charge" ]
  functions = [
    Time
    OuterVoltage InnerVoltage QuasiFermiPotential DisplacementCurrent eCurrent
    hCurrent TotalCurrent Charge OuterVoltage InnerVoltage
    QuasiFermiPotential DisplacementCurrent eCurrent hCurrent TotalCurrent
    Charge ]
}

Data {
      0.00000000000000E+00
      0.00000000000000E+00   0.00000000000000E+00   0.00000000000000E+00   0.00000000000000E+00   6.48797424815275E-18
      0.00000000000000E+00   6.48797424815275E-18   1.74595284565179E-14   0.00000000000000E+00   0.00000000000000E+00
      0.00000000000000E+00   0.00000000000000E+00  -1.60804386628392E-21   0.00000000000000E+00  -1.60804386628392E-21
     -1.39728127870810E-14
      0.00000000000000E+00
      0.00000000000000E+00   0.00000000000000E+00   0.00000000000000E+00   0.00000000000000E+00  -1.07027882978597E-18
      0.00000000000000E+00  -1.07027882978597E-18   1.74595284565179E-14   0.00000000000000E+00   0.00000000000000E+00
      0.00000000000000E+00   0.00000000000000E+00  -3.26633906342071E-21   0.00000000000000E+00  -3.26633906342071E-21
     -1.39728127870810E-14
      1.00000000000000E-02
      0.00000000000000E+00   0.00000000000000E+00   0.00000000000000E+00   0.00000000000000E+00   5.83060477479040E-14
      0.00000000000000E+00   5.83060477479040E-14   3.54035423603726E-14  -1.00000000000000E+00  -1.00000000000000E+00
      0.00000000000000E+00   0.00000000000000E+00  -5.83158994673723E-14   0.00000000000000E+00  -5.83158994673723E-14
     -3.19157871284574E-14
      2.00000000000000E-02
      0.00000000000000E+00   0.00000000000000E+00   0.00000000000000E+00   0.00000000000000E+00   6.57172511400112E-14
      0.00000000000000E+00   6.57172511400112E-14   5.18131100831533E-14  -2.00000000000000E+00  -2.00000000000000E+00
      0.00000000000000E+00   0.00000000000000E+00  -6.57160995902121E-14   0.00000000000000E+00  -6.57160995902121E-14
     -4.83253533338454E-14
      3.00000000000000E-02
      0.00000000000000E+00   0.00000000000000E+00   0.00000000000000E+00   0.00000000000000E+00   1.72632728004562E-13
      0.00000000000000E+00   1.72632728004562E-13   6.10611038275816E-14  -3.00000000000000E+00  -3.00000000000000E+00
      0.00000000000000E+00   0.00000000000000E+00  -1.72636733433124E-13   0.00000000000000E+00  -1.72636733433124E-13
     -5.75733460884758E-14
      4.00000000000000E-02
      0.00000000000000E+00   0.00000000000000E+00   0.00000000000000E+00   0.00000000000000E+00   1.84890461973071E-13
      0.00000000000000E+00   1.84890461973071E-13   6.97572777420439E-14  -4.00000000000000E+00  -4.00000000000000E+00
      0.00000000000000E+00   0.00000000000000E+00  -1.84892708587228E-13   0.00000000000000E+00  -1.84892708587228E-13
     -6.62695189321195E-14
      5.00000000000000E-02
      0.00000000000000E+00   0.00000000000000E+00   0.00000000000000E+00   0.00000000000000E+00   2.39655264213700E-13
      0.00000000000000E+00   2.39655264213700E-13   7.63441951832637E-14  -5.00000000000000E+00  -5.00000000000000E+00
      0.00000000000000E+00   0.00000000000000E+00  -2.39659758653076E-13   0.00000000000000E+00  -2.39659758653076E-13
     -7.28564354458832E-14
      6.00000000000000E-02
      0.00000000000000E+00   0.00000000000000E+00   0.00000000000000E+00   0.00000000000000E+00   3.76639834926925E-13
      0.00000000000000E+00   3.76639834926925E-13   7.79788206907450E-14  -6.00000000000000E+00  -6.00000000000000E+00
      0.00000000000000E+00   0.00000000000000E+00  -3.76653692112227E-13   0.00000000000000E+00  -3.76653692112227E-13
     -7.44910601330689E-14
      7.00000000000000E-02
      0.00000000000000E+00   0.00000000000000E+00   0.00000000000000E+00   0.00000000000000E+00   4.49753619081728E-13
      0.00000000000000E+00   4.49753619081728E-13   7.89968050346571E-14  -7.00000000000000E+00  -7.00000000000000E+00
      0.00000000000000E+00   0.00000000000000E+00  -4.49772445289132E-13   0.00000000000000E+00  -4.49772445289132E-13
     -7.55090436696880E-14
      8.00000000000000E-02
      0.00000000000000E+00   0.00000000000000E+00   0.00000000000000E+00   0.00000000000000E+00   5.17016425587720E-13
      0.00000000000000E+00   5.17016425587720E-13   7.98702549465258E-14  -8.00000000000000E+00  -8.00000000000000E+00
      0.00000000000000E+00   0.00000000000000E+00  -5.17008479984325E-13   0.00000000000000E+00  -5.17008479984325E-13
     -7.63824927971761E-14
      9.00000000000000E-02
      0.00000000000000E+00   0.00000000000000E+00   0.00000000000000E+00   0.00000000000000E+00   5.81166537552489E-13
      0.00000000000000E+00   5.81166537552489E-13   8.06190264181844E-14  -9.00000000000000E+00  -9.00000000000000E+00
      0.00000000000000E+00   0.00000000000000E+00  -5.81156036463639E-13   0.00000000000000E+00  -5.81156036463639E-13
     -7.71312635121222E-14
      1.00000000000000E-01
      0.00000000000000E+00   0.00000000000000E+00   0.00000000000000E+00   0.00000000000000E+00   6.15938286102782E-13
      0.00000000000000E+00   6.15938286102782E-13   8.13142933120427E-14  -1.00000000000000E+01  -1.00000000000000E+01
      0.00000000000000E+00   0.00000000000000E+00  -6.15920002120079E-13   0.00000000000000E+00  -6.15920002120079E-13
     -7.78265296496064E-14
      1.10000000000000E-01
      0.00000000000000E+00   0.00000000000000E+00   0.00000000000000E+00   0.00000000000000E+00   6.83284335185228E-13
      0.00000000000000E+00   6.83284335185228E-13   8.19363936506730E-14  -1.10000000000000E+01  -1.10000000000000E+01
      0.00000000000000E+00   0.00000000000000E+00  -6.83295467618196E-13   0.00000000000000E+00  -6.83295467618196E-13
     -7.84486292288612E-14
      1.20000000000000E-01
      0.00000000000000E+00   0.00000000000000E+00   0.00000000000000E+00   0.00000000000000E+00   7.09441963973763E-13
      0.00000000000000E+00   7.09441963973763E-13   8.25317036599303E-14  -1.20000000000000E+01  -1.20000000000000E+01
      0.00000000000000E+00   0.00000000000000E+00  -7.09453493870747E-13   0.00000000000000E+00  -7.09453493870747E-13
     -7.90439384986755E-14
      1.30000000000000E-01
      0.00000000000000E+00   0.00000000000000E+00   0.00000000000000E+00   0.00000000000000E+00   7.61143993627719E-13
      0.00000000000000E+00   7.61143993627719E-13   8.30861388293185E-14  -1.30000000000000E+01  -1.30000000000000E+01
      0.00000000000000E+00   0.00000000000000E+00  -7.61163437865923E-13   0.00000000000000E+00  -7.61163437865923E-13
     -7.95983729538488E-14
      1.40000000000000E-01
      0.00000000000000E+00   0.00000000000000E+00   0.00000000000000E+00   0.00000000000000E+00   8.19545451109460E-13
      0.00000000000000E+00   8.19545451109460E-13   8.36034434463697E-14  -1.40000000000000E+01  -1.40000000000000E+01
      0.00000000000000E+00   0.00000000000000E+00  -8.19526412808206E-13   0.00000000000000E+00  -8.19526412808206E-13
     -8.01156768692473E-14
      1.50000000000000E-01
      0.00000000000000E+00   0.00000000000000E+00   0.00000000000000E+00   0.00000000000000E+00   8.33123308626570E-13
      0.00000000000000E+00   8.33123308626570E-13   8.41087472286496E-14  -1.50000000000000E+01  -1.50000000000000E+01
      0.00000000000000E+00   0.00000000000000E+00  -8.33108372197949E-13   0.00000000000000E+00  -8.33108372197949E-13
     -8.06209799627831E-14
      1.60000000000000E-01
      0.00000000000000E+00   0.00000000000000E+00   0.00000000000000E+00   0.00000000000000E+00   8.55261599905915E-13
      0.00000000000000E+00   8.55261599905915E-13   8.45943545678408E-14  -1.60000000000000E+01  -1.60000000000000E+01
      0.00000000000000E+00   0.00000000000000E+00  -8.55250147950322E-13   0.00000000000000E+00  -8.55250147950322E-13
     -8.11065866390675E-14
      1.70000000000000E-01
      0.00000000000000E+00   0.00000000000000E+00   0.00000000000000E+00   0.00000000000000E+00   9.31209254087665E-13
      0.00000000000000E+00   9.31209254087665E-13   8.50479131398650E-14  -1.70000000000000E+01  -1.70000000000000E+01
      0.00000000000000E+00   0.00000000000000E+00  -9.31220968786044E-13   0.00000000000000E+00  -9.31220968786044E-13
     -8.15601445843403E-14
      1.80000000000000E-01
      0.00000000000000E+00   0.00000000000000E+00   0.00000000000000E+00   0.00000000000000E+00   9.58813744710913E-13
      0.00000000000000E+00   9.58813744710913E-13   8.54880167044240E-14  -1.80000000000000E+01  -1.80000000000000E+01
      0.00000000000000E+00   0.00000000000000E+00  -9.58809326499571E-13   0.00000000000000E+00  -9.58809326499571E-13
     -8.20002475445659E-14
      1.90000000000000E-01
      0.00000000000000E+00   0.00000000000000E+00   0.00000000000000E+00   0.00000000000000E+00   9.74007994584403E-13
      0.00000000000000E+00   9.74007994584403E-13   8.59197817053902E-14  -1.90000000000000E+01  -1.90000000000000E+01
      0.00000000000000E+00   0.00000000000000E+00  -9.73991621929712E-13   0.00000000000000E+00  -9.73991621929712E-13
     -8.24320119582795E-14
      2.00000000000000E-01
      0.00000000000000E+00   0.00000000000000E+00   0.00000000000000E+00   0.00000000000000E+00   9.93782343981294E-13
      0.00000000000000E+00   9.93782343981294E-13   8.63393413820742E-14  -2.00000000000000E+01  -2.00000000000000E+01
      0.00000000000000E+00   0.00000000000000E+00  -9.93735362503176E-13   0.00000000000000E+00  -9.93735362503176E-13
     -8.28515710642105E-14
      2.10000000000000E-01
      0.00000000000000E+00   0.00000000000000E+00   0.00000000000000E+00   0.00000000000000E+00   1.04051906094641E-12
      0.00000000000000E+00   1.04051906094641E-12   8.67394815542956E-14  -2.10000000000000E+01  -2.10000000000000E+01
      0.00000000000000E+00   0.00000000000000E+00  -1.04053209802797E-12   0.00000000000000E+00  -1.04053209802797E-12
     -8.32517106865334E-14
      2.20000000000000E-01
      0.00000000000000E+00   0.00000000000000E+00   0.00000000000000E+00   0.00000000000000E+00   1.08158484300979E-12
      0.00000000000000E+00   1.08158484300979E-12   8.71276067524622E-14  -2.20000000000000E+01  -2.20000000000000E+01
      0.00000000000000E+00   0.00000000000000E+00  -1.08157411622861E-12   0.00000000000000E+00  -1.08157411622861E-12
     -8.36398353588332E-14
      2.30000000000000E-01
      0.00000000000000E+00   0.00000000000000E+00   0.00000000000000E+00   0.00000000000000E+00   1.10241843628185E-12
      0.00000000000000E+00   1.10241843628185E-12   8.75089906635184E-14  -2.30000000000000E+01  -2.30000000000000E+01
      0.00000000000000E+00   0.00000000000000E+00  -1.10240708128962E-12   0.00000000000000E+00  -1.10240708128962E-12
     -8.40212187601509E-14
      2.40000000000000E-01
      0.00000000000000E+00   0.00000000000000E+00   0.00000000000000E+00   0.00000000000000E+00   1.12034764938375E-12
      0.00000000000000E+00   1.12034764938375E-12   8.78830926117797E-14  -2.40000000000000E+01  -2.40000000000000E+01
      0.00000000000000E+00   0.00000000000000E+00  -1.12034234931023E-12   0.00000000000000E+00  -1.12034234931023E-12
     -8.43953202099839E-14
      2.50000000000000E-01
      0.00000000000000E+00   0.00000000000000E+00   0.00000000000000E+00   0.00000000000000E+00   1.14484126098829E-12
      0.00000000000000E+00   1.14484126098829E-12   8.82468668661087E-14  -2.50000000000000E+01  -2.50000000000000E+01
      0.00000000000000E+00   0.00000000000000E+00  -1.14482646259989E-12   0.00000000000000E+00  -1.14482646259989E-12
     -8.47590939749680E-14
      2.60000000000000E-01
      0.00000000000000E+00   0.00000000000000E+00   0.00000000000000E+00   0.00000000000000E+00   1.18963513347733E-12
      0.00000000000000E+00   1.18963513347733E-12   8.85996750243780E-14  -2.60000000000000E+01  -2.60000000000000E+01
      0.00000000000000E+00   0.00000000000000E+00  -1.18963522026119E-12   0.00000000000000E+00  -1.18963522026119E-12
     -8.51119016512992E-14
      2.70000000000000E-01
      0.00000000000000E+00   0.00000000000000E+00   0.00000000000000E+00   0.00000000000000E+00   1.20036709080636E-12
      0.00000000000000E+00   1.20036709080636E-12   8.89475179033819E-14  -2.70000000000000E+01  -2.70000000000000E+01
      0.00000000000000E+00   0.00000000000000E+00  -1.20037020418852E-12   0.00000000000000E+00  -1.20037020418852E-12
     -8.54597440575919E-14
      2.80000000000000E-01
      0.00000000000000E+00   0.00000000000000E+00   0.00000000000000E+00   0.00000000000000E+00   1.22402713952685E-12
      0.00000000000000E+00   1.22402713952685E-12   8.92894289777735E-14  -2.80000000000000E+01  -2.80000000000000E+01
      0.00000000000000E+00   0.00000000000000E+00  -1.22401369306806E-12   0.00000000000000E+00  -1.22401369306806E-12
     -8.58016546722498E-14
      2.90000000000000E-01
      0.00000000000000E+00   0.00000000000000E+00   0.00000000000000E+00   0.00000000000000E+00   1.24751356858487E-12
      0.00000000000000E+00   1.24751356858487E-12   8.96256628064733E-14  -2.90000000000000E+01  -2.90000000000000E+01
      0.00000000000000E+00   0.00000000000000E+00  -1.24752884283919E-12   0.00000000000000E+00  -1.24752884283919E-12
     -8.61378880495406E-14
      3.00000000000000E-01
      0.00000000000000E+00   0.00000000000000E+00   0.00000000000000E+00   0.00000000000000E+00   1.26881714734181E-12
      0.00000000000000E+00   1.26881714734181E-12   8.99555245759653E-14  -3.00000000000000E+01  -3.00000000000000E+01
      0.00000000000000E+00   0.00000000000000E+00  -1.26881497333354E-12   0.00000000000000E+00  -1.26881497333354E-12
     -8.64677493724849E-14
      3.10000000000000E-01
      0.00000000000000E+00   0.00000000000000E+00   0.00000000000000E+00   0.00000000000000E+00   1.30073916869024E-12
      0.00000000000000E+00   1.30073916869024E-12   9.02773011443217E-14  -3.10000000000000E+01  -3.10000000000000E+01
      0.00000000000000E+00   0.00000000000000E+00  -1.30073831664745E-12   0.00000000000000E+00  -1.30073831664745E-12
     -8.67895254969355E-14
      3.20000000000000E-01
      0.00000000000000E+00   0.00000000000000E+00   0.00000000000000E+00   0.00000000000000E+00   1.33552320459455E-12
      0.00000000000000E+00   1.33552320459455E-12   9.05948174531082E-14  -3.20000000000000E+01  -3.20000000000000E+01
      0.00000000000000E+00   0.00000000000000E+00  -1.33554342293823E-12   0.00000000000000E+00  -1.33554342293823E-12
     -8.71070413610605E-14
      3.30000000000000E-01
      0.00000000000000E+00   0.00000000000000E+00   0.00000000000000E+00   0.00000000000000E+00   1.33825242535453E-12
      0.00000000000000E+00   1.33825242535453E-12   9.09120232663009E-14  -3.30000000000000E+01  -3.30000000000000E+01
      0.00000000000000E+00   0.00000000000000E+00  -1.33824891172495E-12   0.00000000000000E+00  -1.33824891172495E-12
     -8.74242467266872E-14
      3.40000000000000E-01
      0.00000000000000E+00   0.00000000000000E+00   0.00000000000000E+00   0.00000000000000E+00   1.33833841964799E-12
      0.00000000000000E+00   1.33833841964799E-12   9.12291938757950E-14  -3.40000000000000E+01  -3.40000000000000E+01
      0.00000000000000E+00   0.00000000000000E+00  -1.33833887739837E-12   0.00000000000000E+00  -1.33833887739837E-12
     -8.77414168850406E-14
      3.50000000000000E-01
      0.00000000000000E+00   0.00000000000000E+00   0.00000000000000E+00   0.00000000000000E+00   1.33835567826083E-12
      0.00000000000000E+00   1.33835567826083E-12   9.15463305066506E-14  -3.50000000000000E+01  -3.50000000000000E+01
      0.00000000000000E+00   0.00000000000000E+00  -1.33837612761715E-12   0.00000000000000E+00  -1.33837612761715E-12
     -8.80585530605442E-14
      3.60000000000000E-01
      0.00000000000000E+00   0.00000000000000E+00   0.00000000000000E+00   0.00000000000000E+00   1.33840142794903E-12
      0.00000000000000E+00   1.33840142794903E-12   9.18634287167471E-14  -3.60000000000000E+01  -3.60000000000000E+01
      0.00000000000000E+00   0.00000000000000E+00  -1.33840790787467E-12   0.00000000000000E+00  -1.33840790787467E-12
     -8.83756508103539E-14
      3.70000000000000E-01
      0.00000000000000E+00   0.00000000000000E+00   0.00000000000000E+00   0.00000000000000E+00   1.33842429426771E-12
      0.00000000000000E+00   1.33842429426771E-12   9.21804829990037E-14  -3.70000000000000E+01  -3.70000000000000E+01
      0.00000000000000E+00   0.00000000000000E+00  -1.33843570649840E-12   0.00000000000000E+00  -1.33843570649840E-12
     -8.86927046265638E-14
      3.80000000000000E-01
      0.00000000000000E+00   0.00000000000000E+00   0.00000000000000E+00   0.00000000000000E+00   1.33849031324349E-12
      0.00000000000000E+00   1.33849031324349E-12   9.24974865501527E-14  -3.80000000000000E+01  -3.80000000000000E+01
      0.00000000000000E+00   0.00000000000000E+00  -1.33846104853549E-12   0.00000000000000E+00  -1.33846104853549E-12
     -8.90097077049544E-14
      3.90000000000000E-01
      0.00000000000000E+00   0.00000000000000E+00   0.00000000000000E+00   0.00000000000000E+00   1.33845025070315E-12
      0.00000000000000E+00   1.33845025070315E-12   9.28144308281552E-14  -3.90000000000000E+01  -3.90000000000000E+01
      0.00000000000000E+00   0.00000000000000E+00  -1.33848461518920E-12   0.00000000000000E+00  -1.33848461518920E-12
     -8.93266515023904E-14
      4.00000000000000E-01
      0.00000000000000E+00   0.00000000000000E+00   0.00000000000000E+00   0.00000000000000E+00   1.33851727423098E-12
      0.00000000000000E+00   1.33851727423098E-12   9.31313048969296E-14  -4.00000000000000E+01  -4.00000000000000E+01
      0.00000000000000E+00   0.00000000000000E+00  -1.33850674628430E-12   0.00000000000000E+00  -1.33850674628430E-12
     -8.96435250815133E-14
      4.10000000000000E-01
      0.00000000000000E+00   0.00000000000000E+00   0.00000000000000E+00   0.00000000000000E+00   1.33850081154537E-12
      0.00000000000000E+00   1.33850081154537E-12   9.34480944248809E-14  -4.10000000000000E+01  -4.10000000000000E+01
      0.00000000000000E+00   0.00000000000000E+00  -1.33852998368210E-12   0.00000000000000E+00  -1.33852998368210E-12
     -8.99603141092312E-14
      4.20000000000000E-01
      0.00000000000000E+00   0.00000000000000E+00   0.00000000000000E+00   0.00000000000000E+00   1.33855058352966E-12
      0.00000000000000E+00   1.33855058352966E-12   9.37647800885114E-14  -4.20000000000000E+01  -4.20000000000000E+01
      0.00000000000000E+00   0.00000000000000E+00  -1.33855454341740E-12   0.00000000000000E+00  -1.33855454341740E-12
     -9.02769992602698E-14
      4.30000000000000E-01
      0.00000000000000E+00   0.00000000000000E+00   0.00000000000000E+00   0.00000000000000E+00   1.33856661787031E-12
      0.00000000000000E+00   1.33856661787031E-12   9.40813348916483E-14  -4.30000000000000E+01  -4.30000000000000E+01
      0.00000000000000E+00   0.00000000000000E+00  -1.33858169672077E-12   0.00000000000000E+00  -1.33858169672077E-12
     -9.05935535363223E-14
      4.40000000000000E-01
      0.00000000000000E+00   0.00000000000000E+00   0.00000000000000E+00   0.00000000000000E+00   1.33861757306024E-12
      0.00000000000000E+00   1.33861757306024E-12   9.43977193574196E-14  -4.40000000000000E+01  -4.40000000000000E+01
      0.00000000000000E+00   0.00000000000000E+00  -1.33861517498681E-12   0.00000000000000E+00  -1.33861517498681E-12
     -9.09099374579209E-14
      4.50000000000000E-01
      0.00000000000000E+00   0.00000000000000E+00   0.00000000000000E+00   0.00000000000000E+00   1.33866094377086E-12
      0.00000000000000E+00   1.33866094377086E-12   9.47138721341255E-14  -4.50000000000000E+01  -4.50000000000000E+01
      0.00000000000000E+00   0.00000000000000E+00  -1.33865866676993E-12   0.00000000000000E+00  -1.33865866676993E-12
     -9.12260896701695E-14
      4.60000000000000E-01
      0.00000000000000E+00   0.00000000000000E+00   0.00000000000000E+00   0.00000000000000E+00   1.33871125974665E-12
      0.00000000000000E+00   1.33871125974665E-12   9.50296893997014E-14  -4.60000000000000E+01  -4.60000000000000E+01
      0.00000000000000E+00   0.00000000000000E+00  -1.33872327934326E-12   0.00000000000000E+00  -1.33872327934326E-12
     -9.15419063470377E-14
      4.70000000000000E-01
      0.00000000000000E+00   0.00000000000000E+00   0.00000000000000E+00   0.00000000000000E+00   1.33881153396586E-12
      0.00000000000000E+00   1.33881153396586E-12   9.53449719321074E-14  -4.70000000000000E+01  -4.70000000000000E+01
      0.00000000000000E+00   0.00000000000000E+00  -1.33883537282190E-12   0.00000000000000E+00  -1.33883537282190E-12
     -9.18571882616164E-14
      4.80000000000000E-01
      0.00000000000000E+00   0.00000000000000E+00   0.00000000000000E+00   0.00000000000000E+00   1.33913114071737E-12
      0.00000000000000E+00   1.33913114071737E-12   9.56592574462489E-14  -4.80000000000000E+01  -4.80000000000000E+01
      0.00000000000000E+00   0.00000000000000E+00  -1.33910995049456E-12   0.00000000000000E+00  -1.33910995049456E-12
     -9.21714731232587E-14
      4.90000000000000E-01
      0.00000000000000E+00   0.00000000000000E+00   0.00000000000000E+00   0.00000000000000E+00   1.34055907193324E-12
      0.00000000000000E+00   1.34055907193324E-12   9.59712598092373E-14  -4.90000000000000E+01  -4.90000000000000E+01
      0.00000000000000E+00   0.00000000000000E+00  -1.34055493130540E-12   0.00000000000000E+00  -1.34055493130540E-12
     -9.24834747947603E-14
      5.00000000000000E-01
      0.00000000000000E+00   0.00000000000000E+00   0.00000000000000E+00   0.00000000000000E+00   1.35448509683075E-12
      0.00000000000000E+00   1.35448509683075E-12   9.62788573134405E-14  -5.00000000000000E+01  -5.00000000000000E+01
      0.00000000000000E+00   0.00000000000000E+00  -1.35449885436904E-12   0.00000000000000E+00  -1.35449885436904E-12
     -9.27910715656229E-14
      5.10000000000000E-01
      0.00000000000000E+00   0.00000000000000E+00   0.00000000000000E+00   0.00000000000000E+00   1.38189284338790E-12
      0.00000000000000E+00   1.38189284338790E-12   9.65817177299087E-14  -5.10000000000000E+01  -5.10000000000000E+01
      0.00000000000000E+00   0.00000000000000E+00  -1.38188443368202E-12   0.00000000000000E+00  -1.38188443368202E-12
     -9.30939311938846E-14
      5.20000000000000E-01
      0.00000000000000E+00   0.00000000000000E+00   0.00000000000000E+00   0.00000000000000E+00   1.40422524755704E-12
      0.00000000000000E+00   1.40422524755704E-12   9.68796964327497E-14  -5.20000000000000E+01  -5.20000000000000E+01
      0.00000000000000E+00   0.00000000000000E+00  -1.40422974688608E-12   0.00000000000000E+00  -1.40422974688608E-12
     -9.33919090370857E-14
      5.30000000000000E-01
      0.00000000000000E+00   0.00000000000000E+00   0.00000000000000E+00   0.00000000000000E+00   1.43151998001413E-12
      0.00000000000000E+00   1.43151998001413E-12   9.71718447036302E-14  -5.30000000000000E+01  -5.30000000000000E+01
      0.00000000000000E+00   0.00000000000000E+00  -1.43149546647420E-12   0.00000000000000E+00  -1.43149546647420E-12
     -9.36840563667562E-14
      5.40000000000000E-01
      0.00000000000000E+00   0.00000000000000E+00   0.00000000000000E+00   0.00000000000000E+00   1.46913388214406E-12
      0.00000000000000E+00   1.46913388214406E-12   9.74600856465924E-14  -5.40000000000000E+01  -5.40000000000000E+01
      0.00000000000000E+00   0.00000000000000E+00  -1.46914131325039E-12   0.00000000000000E+00  -1.46914131325039E-12
     -9.39722962903041E-14
      5.50000000000000E-01
      0.00000000000000E+00   0.00000000000000E+00   0.00000000000000E+00   0.00000000000000E+00   1.47775087523957E-12
      0.00000000000000E+00   1.47775087523957E-12   9.77477731552618E-14  -5.50000000000000E+01  -5.50000000000000E+01
      0.00000000000000E+00   0.00000000000000E+00  -1.47775333413011E-12   0.00000000000000E+00  -1.47775333413011E-12
     -9.42599827294160E-14
      5.60000000000000E-01
      0.00000000000000E+00   0.00000000000000E+00   0.00000000000000E+00   0.00000000000000E+00   1.47820610342595E-12
      0.00000000000000E+00   1.47820610342595E-12   9.80353996482135E-14  -5.60000000000000E+01  -5.60000000000000E+01
      0.00000000000000E+00   0.00000000000000E+00  -1.47816999376487E-12   0.00000000000000E+00  -1.47816999376487E-12
     -9.45476081481943E-14
      5.70000000000000E-01
      0.00000000000000E+00   0.00000000000000E+00   0.00000000000000E+00   0.00000000000000E+00   1.47837628051913E-12
      0.00000000000000E+00   1.47837628051913E-12   9.83229963092219E-14  -5.70000000000000E+01  -5.70000000000000E+01
      0.00000000000000E+00   0.00000000000000E+00  -1.47838495960407E-12   0.00000000000000E+00  -1.47838495960407E-12
     -9.48352037654780E-14
      5.80000000000000E-01
      0.00000000000000E+00   0.00000000000000E+00   0.00000000000000E+00   0.00000000000000E+00   1.47872302195803E-12
      0.00000000000000E+00   1.47872302195803E-12   9.86105733750797E-14  -5.80000000000000E+01  -5.80000000000000E+01
      0.00000000000000E+00   0.00000000000000E+00  -1.47874099933599E-12   0.00000000000000E+00  -1.47874099933599E-12
     -9.51227798334682E-14
      5.90000000000000E-01
      0.00000000000000E+00   0.00000000000000E+00   0.00000000000000E+00   0.00000000000000E+00   1.47917925666431E-12
      0.00000000000000E+00   1.47917925666431E-12   9.88981354144225E-14  -5.90000000000000E+01  -5.90000000000000E+01
      0.00000000000000E+00   0.00000000000000E+00  -1.47921015172754E-12   0.00000000000000E+00  -1.47921015172754E-12
     -9.54103409226970E-14
      6.00000000000000E-01
      0.00000000000000E+00   0.00000000000000E+00   0.00000000000000E+00   0.00000000000000E+00   1.47965011166120E-12
      0.00000000000000E+00   1.47965011166120E-12   9.91856838297333E-14  -6.00000000000000E+01  -6.00000000000000E+01
      0.00000000000000E+00   0.00000000000000E+00  -1.47964193138715E-12   0.00000000000000E+00  -1.47964193138715E-12
     -9.56978884300814E-14
      6.10000000000000E-01
      0.00000000000000E+00   0.00000000000000E+00   0.00000000000000E+00   0.00000000000000E+00   1.47992648197433E-12
      0.00000000000000E+00   1.47992648197433E-12   9.94732184014063E-14  -6.10000000000000E+01  -6.10000000000000E+01
      0.00000000000000E+00   0.00000000000000E+00  -1.47992457322587E-12   0.00000000000000E+00  -1.47992457322587E-12
     -9.59854221263996E-14
      6.20000000000000E-01
      0.00000000000000E+00   0.00000000000000E+00   0.00000000000000E+00   0.00000000000000E+00   1.48007744530710E-12
      0.00000000000000E+00   1.48007744530710E-12   9.97607380259240E-14  -6.20000000000000E+01  -6.20000000000000E+01
      0.00000000000000E+00   0.00000000000000E+00  -1.48007189042710E-12   0.00000000000000E+00  -1.48007189042710E-12
     -9.62729408974930E-14
      6.30000000000000E-01
      0.00000000000000E+00   0.00000000000000E+00   0.00000000000000E+00   0.00000000000000E+00   1.48014090391594E-12
      0.00000000000000E+00   1.48014090391594E-12   1.00048240978051E-13  -6.30000000000000E+01  -6.30000000000000E+01
      0.00000000000000E+00   0.00000000000000E+00  -1.48014141863716E-12   0.00000000000000E+00  -1.48014141863716E-12
     -9.65604430080637E-14
      6.40000000000000E-01
      0.00000000000000E+00   0.00000000000000E+00   0.00000000000000E+00   0.00000000000000E+00   1.48018564957984E-12
      0.00000000000000E+00   1.48018564957984E-12   1.00335724922681E-13  -6.40000000000000E+01  -6.40000000000000E+01
      0.00000000000000E+00   0.00000000000000E+00  -1.48017383179210E-12   0.00000000000000E+00  -1.48017383179210E-12
     -9.68479261133845E-14
      6.50000000000000E-01
      0.00000000000000E+00   0.00000000000000E+00   0.00000000000000E+00   0.00000000000000E+00   1.48021480469227E-12
      0.00000000000000E+00   1.48021480469227E-12   1.00623186769345E-13  -6.50000000000000E+01  -6.50000000000000E+01
      0.00000000000000E+00   0.00000000000000E+00  -1.48019090796397E-12   0.00000000000000E+00  -1.48019090796397E-12
     -9.71353871130051E-14
      6.60000000000000E-01
      0.00000000000000E+00   0.00000000000000E+00   0.00000000000000E+00   0.00000000000000E+00   1.48020831246414E-12
      0.00000000000000E+00   1.48020831246414E-12   1.00910622383383E-13  -6.60000000000000E+01  -6.60000000000000E+01
      0.00000000000000E+00   0.00000000000000E+00  -1.48020112070461E-12   0.00000000000000E+00  -1.48020112070461E-12
     -9.74228218610505E-14
      6.70000000000000E-01
      0.00000000000000E+00   0.00000000000000E+00   0.00000000000000E+00   0.00000000000000E+00   1.48022075793634E-12
      0.00000000000000E+00   1.48022075793634E-12   1.01198026127800E-13  -6.70000000000000E+01  -6.70000000000000E+01
      0.00000000000000E+00   0.00000000000000E+00  -1.48020853984241E-12   0.00000000000000E+00  -1.48020853984241E-12
     -9.77102247071965E-14
      6.80000000000000E-01
      0.00000000000000E+00   0.00000000000000E+00   0.00000000000000E+00   0.00000000000000E+00   1.48020374076232E-12
      0.00000000000000E+00   1.48020374076232E-12   1.01485390222211E-13  -6.80000000000000E+01  -6.80000000000000E+01
      0.00000000000000E+00   0.00000000000000E+00  -1.48021672039241E-12   0.00000000000000E+00  -1.48021672039241E-12
     -9.79975878548858E-14
      6.90000000000000E-01
      0.00000000000000E+00   0.00000000000000E+00   0.00000000000000E+00   0.00000000000000E+00   1.48024471504958E-12
      0.00000000000000E+00   1.48024471504958E-12   1.01772704088004E-13  -6.90000000000000E+01  -6.90000000000000E+01
      0.00000000000000E+00   0.00000000000000E+00  -1.48022532644041E-12   0.00000000000000E+00  -1.48022532644041E-12
     -9.82849007067513E-14
      7.00000000000000E-01