DF-ISE text

Info {
  version   = 1.0
  type      = xyplot
  datasets  = [
    "frequency"
    "v(a)" "v(c)" "a(a,a)" "c(a,a)" "a(a,c)"
    "c(a,c)" "a(c,a)" "c(c,a)" "a(c,c)" "c(c,c)" ]
  functions = [
    Frequency
    Voltage Voltage Admittance Capacitance Admittance
    Capacitance Admittance Capacitance Admittance Capacitance ]
}

Data {
      1.00000000000000E+04
      0.00000000000000E+00   0.00000000000000E+00  -3.21405841119519E+09   3.13157278063164E-14  -2.86917336825671E-10
     -3.13157280394445E-14  -2.86917152196629E-10  -3.13157285531207E-14  -3.21405841119519E+09   3.13157287884900E-14
      1.66810053720006E+04
      0.00000000000000E+00   0.00000000000000E+00  -3.21405841119519E+09   3.01684615286645E-14  -7.05714741611746E-10
     -3.01684614523113E-14  -7.05714683197096E-10  -3.01684615746944E-14  -3.21405841119519E+09   3.01684614995535E-14
      2.78255940220712E+04
      0.00000000000000E+00   0.00000000000000E+00  -3.21405841119519E+09   2.74991122963091E-14  -1.68110460681910E-09
     -2.74991122400976E-14  -1.68110441932895E-09  -2.74991127067948E-14  -3.21405841119519E+09   2.74991126507052E-14
      4.64158883361278E+04
      0.00000000000000E+00   0.00000000000000E+00  -3.21405841119519E+09   2.26069853540426E-14  -3.47432861610497E-09
     -2.26069854395809E-14  -3.47432844368626E-09  -2.26069859879899E-14  -3.21405841119519E+09   2.26069860732782E-14
      7.74263682681127E+04
      0.00000000000000E+00   0.00000000000000E+00  -3.21405841119519E+09   1.66050946452813E-14  -5.69992359061733E-09
     -1.66050945875589E-14  -5.69992348790192E-09  -1.66050949000607E-14  -3.21405841119519E+09   1.66050948432479E-14
      1.29154966501488E+05
      0.00000000000000E+00   0.00000000000000E+00  -3.21405841119519E+09   1.20167308653275E-14  -7.49347239428746E-09
     -1.20167308701810E-14  -7.49347238745495E-09  -1.20167308640712E-14  -3.21405841119519E+09   1.20167308695487E-14
      2.15443469003188E+05
      0.00000000000000E+00   0.00000000000000E+00  -3.21405841119519E+09   9.60782649036639E-15  -8.72046188123641E-09
     -9.60782646630911E-15  -8.72046186332648E-09  -9.60782647987500E-15  -3.21405841119519E+09   9.60782645505771E-15
      3.59381366380463E+05
      0.00000000000000E+00   0.00000000000000E+00  -3.21405841119519E+09   8.55729735458979E-15  -1.00718722194589E-08
     -8.55729736406127E-15  -1.00718722124063E-08  -8.55729736865868E-15  -3.21405841119519E+09   8.55729737746232E-15
      5.99484250318941E+05
      0.00000000000000E+00   0.00000000000000E+00  -3.21405841119519E+09   8.05387564828150E-15  -1.28856896425225E-08
     -8.05387564718079E-15  -1.28856896488343E-08  -8.05387565428679E-15  -3.21405841119519E+09   8.05387565255805E-15
      1.00000000000000E+06
      0.00000000000000E+00   0.00000000000000E+00  -3.21405841119519E+09   7.60397620879264E-15  -1.98985919866227E-08
     -7.60397620983104E-15  -1.98985919988736E-08  -7.60397621201010E-15  -3.21405841119519E+09   7.60397621265347E-15
      1.00000000000000E+04
     -1.00000000000000E+00   0.00000000000000E+00  -3.21405841119519E+09   3.97382103065540E-15  -4.26390579768018E-12
     -3.97382103144609E-15  -4.26390956392115E-12  -3.97382103112897E-15  -3.21405841119519E+09   3.97382103146774E-15
      1.66810053720006E+04
     -1.00000000000000E+00   0.00000000000000E+00  -3.21405841119519E+09   3.97379891395622E-15  -4.59637512354800E-12
     -3.97379891277123E-15  -4.59638316515839E-12  -3.97379891340723E-15  -3.21405841119519E+09   3.97379891125595E-15
      2.78255940220712E+04
     -1.00000000000000E+00   0.00000000000000E+00  -3.21405841119519E+09   3.97377938227873E-15  -5.52145680532961E-12
     -3.97377938194799E-15  -5.52146118371805E-12  -3.97377938209573E-15  -3.21405841119519E+09   3.97377938185009E-15
      4.64158883361278E+04
     -1.00000000000000E+00   0.00000000000000E+00  -3.21405841119519E+09   3.97374035610117E-15  -8.09539179297091E-12
     -3.97374035599267E-15  -8.09539617934733E-12  -3.97374035597817E-15  -3.21405841119519E+09   3.97374035535180E-15
      7.74263682681127E+04
     -1.00000000000000E+00   0.00000000000000E+00  -3.21405841119519E+09   3.97363818149678E-15  -1.52567219915726E-11
     -3.97363818141200E-15  -1.52567143675886E-11  -3.97363818146392E-15  -3.21405841119519E+09   3.97363818174725E-15
      1.29154966501488E+05
     -1.00000000000000E+00   0.00000000000000E+00  -3.21405841119519E+09   3.97335825202390E-15  -3.51800354964123E-11
     -3.97335825191125E-15  -3.51800338834142E-11  -3.97335825185608E-15  -3.21405841119519E+09   3.97335825187766E-15
      2.15443469003188E+05
     -1.00000000000000E+00   0.00000000000000E+00  -3.21405841119519E+09   3.97258337699762E-15  -9.05984759336916E-11
     -3.97258337694314E-15  -9.05984698888936E-11  -3.97258337700131E-15  -3.21405841119519E+09   3.97258337609525E-15
      3.59381366380463E+05
     -1.00000000000000E+00   0.00000000000000E+00  -3.21405841119519E+09   3.97043197862262E-15  -2.44665301284370E-10
     -3.97043197857121E-15  -2.44665304716807E-10  -3.97043197864196E-15  -3.21405841119519E+09   3.97043197999943E-15
      5.99484250318941E+05
     -1.00000000000000E+00   0.00000000000000E+00  -3.21405841119519E+09   3.96446275493250E-15  -6.72309926406577E-10
     -3.96446275486711E-15  -6.72309921267261E-10  -3.96446275496585E-15  -3.21405841119519E+09   3.96446275473093E-15
      1.00000000000000E+06
     -1.00000000000000E+00   0.00000000000000E+00  -3.21405841119519E+09   3.94797163390920E-15  -1.85416393776694E-09
     -3.94797163387553E-15  -1.85416393990669E-09  -3.94797163391597E-15  -3.21405841119519E+09   3.94797163442151E-15
      1.00000000000000E+04
     -2.00000000000000E+00   0.00000000000000E+00  -3.21405841119519E+09   3.38382920075444E-15  -1.63361778877014E-12
     -3.38382920305832E-15  -1.63362055760932E-12  -3.38382920166213E-15  -3.21405841119519E+09   3.38382920465428E-15
      1.66810053720006E+04
     -2.00000000000000E+00   0.00000000000000E+00  -3.21405841119519E+09   3.38381908628397E-15  -1.85211212838802E-12
     -3.38381908640987E-15  -1.85211620778334E-12  -3.38381908677396E-15  -3.21405841119519E+09   3.38381908642036E-15
      2.78255940220712E+04
     -2.00000000000000E+00   0.00000000000000E+00  -3.21405841119519E+09   3.38380956313529E-15  -2.46006373966509E-12
     -3.38380956331153E-15  -2.46005378685321E-12  -3.38380956322352E-15  -3.21405841119519E+09   3.38380956395989E-15
      4.64158883361278E+04
     -2.00000000000000E+00   0.00000000000000E+00  -3.21405841119519E+09   3.38378993512383E-15  -4.15161458869469E-12
     -3.38378993515835E-15  -4.15161318588627E-12  -3.38378993503959E-15  -3.21405841119519E+09   3.38378993456764E-15
      7.74263682681127E+04
     -2.00000000000000E+00   0.00000000000000E+00  -3.21405841119519E+09   3.38373851936996E-15  -8.85793860916708E-12
     -3.38373851931615E-15  -8.85792834735965E-12  -3.38373851924597E-15  -3.21405841119519E+09   3.38373851961421E-15
      1.29154966501488E+05
     -2.00000000000000E+00   0.00000000000000E+00  -3.21405841119519E+09   3.38359827135144E-15  -2.19517064210328E-11
     -3.38359827131086E-15  -2.19517031607331E-11  -3.38359827120441E-15  -3.21405841119519E+09   3.38359827167761E-15
      2.15443469003188E+05
     -2.00000000000000E+00   0.00000000000000E+00  -3.21405841119519E+09   3.38321093760343E-15  -5.83779303551266E-11
     -3.38321093756377E-15  -5.83779310575046E-11  -3.38321093737863E-15  -3.21405841119519E+09   3.38321093745271E-15
      3.59381366380463E+05
     -2.00000000000000E+00   0.00000000000000E+00  -3.21405841119519E+09   3.38213586776331E-15  -1.59683893301076E-10
     -3.38213586774549E-15  -1.59683896861926E-10  -3.38213586770163E-15  -3.21405841119519E+09   3.38213586794154E-15
      5.99484250318941E+05
     -2.00000000000000E+00   0.00000000000000E+00  -3.21405841119519E+09   3.37915010674985E-15  -4.41180346008756E-10
     -3.37915010670002E-15  -4.41180345636697E-10  -3.37915010671118E-15  -3.21405841119519E+09   3.37915010706203E-15
      1.00000000000000E+06
     -2.00000000000000E+00   0.00000000000000E+00  -3.21405841119519E+09   3.37087530022305E-15  -1.22143991525144E-09
     -3.37087530018171E-15  -1.22143991656870E-09  -3.37087530023983E-15  -3.21405841119519E+09   3.37087530013823E-15
      1.00000000000000E+04
     -3.00000000000000E+00   0.00000000000000E+00  -3.21405841119519E+09   3.25589097813966E-15  -6.78250691907434E-13
     -3.25589097393788E-15  -6.78257267051490E-13  -3.25589097798062E-15  -3.21405841119519E+09   3.25589097484797E-15
      1.66810053720006E+04
     -3.00000000000000E+00   0.00000000000000E+00  -3.21405841119519E+09   3.25588383278400E-15  -8.80119219893464E-13
     -3.25588383162081E-15  -8.80110749613604E-13  -3.25588383297104E-15  -3.21405841119519E+09   3.25588383134817E-15
      2.78255940220712E+04
     -3.00000000000000E+00   0.00000000000000E+00  -3.21405841119519E+09   3.25587599624330E-15  -1.44181345182694E-12
     -3.25587599586263E-15  -1.44181704092316E-12  -3.25587599617283E-15  -3.21405841119519E+09   3.25587599540969E-15
      4.64158883361278E+04
     -3.00000000000000E+00   0.00000000000000E+00  -3.21405841119519E+09   3.25585868499931E-15  -3.00465807437094E-12
     -3.25585868494010E-15  -3.00465777065207E-12  -3.25585868490268E-15  -3.21405841119519E+09   3.25585868490842E-15
      7.74263682681127E+04
     -3.00000000000000E+00   0.00000000000000E+00  -3.21405841119519E+09   3.25581281213235E-15  -7.35289090921362E-12
     -3.25581281208948E-15  -7.35288211000308E-12  -3.25581281221495E-15  -3.21405841119519E+09   3.25581281261669E-15
      1.29154966501488E+05
     -3.00000000000000E+00   0.00000000000000E+00  -3.21405841119519E+09   3.25568756470495E-15  -1.94504209525801E-11
     -3.25568756467553E-15  -1.94504103611363E-11  -3.25568756481756E-15  -3.21405841119519E+09   3.25568756405137E-15
      2.15443469003188E+05
     -3.00000000000000E+00   0.00000000000000E+00  -3.21405841119519E+09   3.25534171848885E-15  -5.31055215697668E-11
     -3.25534171847469E-15  -5.31055216596108E-11  -3.25534171838864E-15  -3.21405841119519E+09   3.25534171982017E-15
      3.59381366380463E+05
     -3.00000000000000E+00   0.00000000000000E+00  -3.21405841119519E+09   3.25438185837608E-15  -1.46707706722319E-10
     -3.25438185833851E-15  -1.46707705995437E-10  -3.25438185827865E-15  -3.21405841119519E+09   3.25438185841410E-15
      5.99484250318941E+05
     -3.00000000000000E+00   0.00000000000000E+00  -3.21405841119519E+09   3.25171588636265E-15  -4.06821788963328E-10
     -3.25171588634699E-15  -4.06821775189504E-10  -3.25171588628763E-15  -3.21405841119519E+09   3.25171588705271E-15
      1.00000000000000E+06
     -3.00000000000000E+00   0.00000000000000E+00  -3.21405841119519E+09   3.24432550569623E-15  -1.12799734554981E-09
     -3.24432550566918E-15  -1.12799732873836E-09  -3.24432550583133E-15  -3.21405841119519E+09   3.24432550538653E-15
      1.00000000000000E+04
     -4.00000000000000E+00   0.00000000000000E+00  -3.21405841119519E+09   3.07169562591666E-15  -8.20708478678795E-13
     -3.07169562539186E-15  -8.20718033519992E-13  -3.07169562605796E-15  -3.21405841119519E+09   3.07169562587245E-15
      1.66810053720006E+04
     -4.00000000000000E+00   0.00000000000000E+00  -3.21405841119519E+09   3.07169029226817E-15  -9.97520674673929E-13
     -3.07169029180373E-15  -9.97525245427039E-13  -3.07169029222164E-15  -3.21405841119519E+09   3.07169029249122E-15
      2.78255940220712E+04
     -4.00000000000000E+00   0.00000000000000E+00  -3.21405841119519E+09   3.07168401693209E-15  -1.48949398942946E-12
     -3.07168401687902E-15  -1.48949998842372E-12  -3.07168401681922E-15  -3.21405841119519E+09   3.07168401676292E-15
      4.64158883361278E+04
     -4.00000000000000E+00   0.00000000000000E+00  -3.21405841119519E+09   3.07166978934173E-15  -2.85834444946392E-12
     -3.07166978934585E-15  -2.85833528182968E-12  -3.07166978939088E-15  -3.21405841119519E+09   3.07166978888938E-15
      7.74263682681127E+04
     -4.00000000000000E+00   0.00000000000000E+00  -3.21405841119519E+09   3.07163200806503E-15  -6.66681563486862E-12
     -3.07163200800619E-15  -6.66682266136919E-12  -3.07163200802096E-15  -3.21405841119519E+09   3.07163200820559E-15
      1.29154966501488E+05
     -4.00000000000000E+00   0.00000000000000E+00  -3.21405841119519E+09   3.07152903292925E-15  -1.72626273198372E-11
     -3.07152903288363E-15  -1.72626258850718E-11  -3.07152903302261E-15  -3.21405841119519E+09   3.07152903316195E-15
      2.15443469003188E+05
     -4.00000000000000E+00   0.00000000000000E+00  -3.21405841119519E+09   3.07124500495539E-15  -4.67404465374148E-11
     -3.07124500492748E-15  -4.67404524170209E-11  -3.07124500494231E-15  -3.21405841119519E+09   3.07124500554791E-15
      3.59381366380463E+05
     -4.00000000000000E+00   0.00000000000000E+00  -3.21405841119519E+09   3.07045695666402E-15  -1.28729198258292E-10
     -3.07045695662258E-15  -1.28729203722322E-10  -3.07045695675108E-15  -3.21405841119519E+09   3.07045695676400E-15
      5.99484250318941E+05
     -4.00000000000000E+00   0.00000000000000E+00  -3.21405841119519E+09   3.06826805021741E-15  -3.56606053013412E-10
     -3.06826805018745E-15  -3.56606041162390E-10  -3.06826805028587E-15  -3.21405841119519E+09   3.06826805002514E-15
      1.00000000000000E+06
     -4.00000000000000E+00   0.00000000000000E+00  -3.21405841119519E+09   3.06219766854345E-15  -9.88678600383393E-10
     -3.06219766849294E-15  -9.88678607116497E-10  -3.06219766864000E-15  -3.21405841119519E+09   3.06219766886714E-15
      1.00000000000000E+04
     -5.00000000000000E+00   0.00000000000000E+00  -3.21405841119519E+09   3.00362823625586E-15  -9.92032610349655E-13
     -3.00362823699633E-15  -9.92032738384408E-13  -3.00362823634819E-15  -3.21405841119519E+09   3.00362823704185E-15
      1.66810053720006E+04
     -5.00000000000000E+00   0.00000000000000E+00  -3.21405841119519E+09   3.00362379359946E-15  -1.15975677716388E-12
     -3.00362379386497E-15  -1.15975722018394E-12  -3.00362379354414E-15  -3.21405841119519E+09   3.00362379433243E-15
      2.78255940220712E+04
     -5.00000000000000E+00   0.00000000000000E+00  -3.21405841119519E+09   3.00361818017040E-15  -1.62644530721040E-12
     -3.00361818008830E-15  -1.62644750859107E-12  -3.00361818013099E-15  -3.21405841119519E+09   3.00361818066758E-15
      4.64158883361278E+04
     -5.00000000000000E+00   0.00000000000000E+00  -3.21405841119519E+09   3.00360512647008E-15  -2.92494589569319E-12
     -3.00360512645637E-15  -2.92493431527612E-12  -3.00360512652300E-15  -3.21405841119519E+09   3.00360512625102E-15
      7.74263682681127E+04
     -5.00000000000000E+00   0.00000000000000E+00  -3.21405841119519E+09   3.00357031393226E-15  -6.53770208151869E-12
     -3.00357031389314E-15  -6.53769764233320E-12  -3.00357031396555E-15  -3.21405841119519E+09   3.00357031360572E-15
      1.29154966501488E+05
     -5.00000000000000E+00   0.00000000000000E+00  -3.21405841119519E+09   3.00347537037028E-15  -1.65890552172616E-11
     -3.00347537035727E-15  -1.65890536492574E-11  -3.00347537026011E-15  -3.21405841119519E+09   3.00347537161377E-15
      2.15443469003188E+05
     -5.00000000000000E+00   0.00000000000000E+00  -3.21405841119519E+09   3.00321347848581E-15  -4.45524389655228E-11
     -3.00321347846264E-15  -4.45524347308725E-11  -3.00321347842530E-15  -3.21405841119519E+09   3.00321347772413E-15
      3.59381366380463E+05
     -5.00000000000000E+00   0.00000000000000E+00  -3.21405841119519E+09   3.00248682542848E-15  -1.22330817940662E-10
     -3.00248682541749E-15  -1.22330819902411E-10  -3.00248682540972E-15  -3.21405841119519E+09   3.00248682530104E-15
      5.99484250318941E+05
     -5.00000000000000E+00   0.00000000000000E+00  -3.21405841119519E+09   3.00046830528813E-15  -3.38519363024880E-10
     -3.00046830525450E-15  -3.38519346643741E-10  -3.00046830539073E-15  -3.21405841119519E+09   3.00046830635829E-15
      1.00000000000000E+06
     -5.00000000000000E+00   0.00000000000000E+00  -3.21405841119519E+09   2.99486941679984E-15  -9.38277737455303E-10
     -2.99486941677601E-15  -9.38277727045731E-10  -2.99486941681866E-15  -3.21405841119519E+09   2.99486941704262E-15
      1.00000000000000E+04
     -6.00000000000000E+00   0.00000000000000E+00  -3.21405841119519E+09   2.98347194721824E-15  -3.47824826791315E-13
     -2.98347194500781E-15  -3.47829493457799E-13  -2.98347194711003E-15  -3.21405841119519E+09   2.98347194520697E-15
      1.66810053720006E+04
     -6.00000000000000E+00   0.00000000000000E+00  -3.21405841119519E+09   2.98346807699415E-15  -5.13898279697047E-13
     -2.98346807637785E-15  -5.13895186219119E-13  -2.98346807686482E-15  -3.21405841119519E+09   2.98346807693847E-15
      2.78255940220712E+04
     -6.00000000000000E+00   0.00000000000000E+00  -3.21405841119519E+09   2.98346271643883E-15  -9.75992918979182E-13
     -2.98346271650508E-15  -9.75996947271681E-13  -2.98346271643945E-15  -3.21405841119519E+09   2.98346271737905E-15
      4.64158883361278E+04
     -6.00000000000000E+00   0.00000000000000E+00  -3.21405841119519E+09   2.98344988074117E-15  -2.26171815737914E-12
     -2.98344988062891E-15  -2.26171002380885E-12  -2.98344988075672E-15  -3.21405841119519E+09   2.98344988033505E-15
      7.74263682681127E+04
     -6.00000000000000E+00   0.00000000000000E+00  -3.21405841119519E+09   2.98341548619925E-15  -5.83892864545746E-12
     -2.98341548618298E-15  -5.83892739261485E-12  -2.98341548614634E-15  -3.21405841119519E+09   2.98341548749191E-15
      1.29154966501488E+05
     -6.00000000000000E+00   0.00000000000000E+00  -3.21405841119519E+09   2.98332161537836E-15  -1.57913940020211E-11
     -2.98332161537163E-15  -1.57913948929344E-11  -2.98332161543654E-15  -3.21405841119519E+09   2.98332161556694E-15
      2.15443469003188E+05
     -6.00000000000000E+00   0.00000000000000E+00  -3.21405841119519E+09   2.98306266215009E-15  -4.34796724385771E-11
     -2.98306266212977E-15  -4.34796734855338E-11  -2.98306266207813E-15  -3.21405841119519E+09   2.98306266198939E-15
      3.59381366380463E+05
     -6.00000000000000E+00   0.00000000000000E+00  -3.21405841119519E+09   2.98234415947902E-15  -1.20492944450177E-10
     -2.98234415947093E-15  -1.20492938669832E-10  -2.98234415964586E-15  -3.21405841119519E+09   2.98234415917120E-15
      5.99484250318941E+05
     -6.00000000000000E+00   0.00000000000000E+00  -3.21405841119519E+09   2.98034827176492E-15  -3.34555452440484E-10
     -2.98034827175201E-15  -3.34555451655181E-10  -2.98034827170005E-15  -3.21405841119519E+09   2.98034827083021E-15
      1.00000000000000E+06
     -6.00000000000000E+00   0.00000000000000E+00  -3.21405841119519E+09   2.97481211579934E-15  -9.28420378660608E-10
     -2.97481211579157E-15  -9.28420393995692E-10  -2.97481211583865E-15  -3.21405841119519E+09   2.97481211642659E-15
      1.00000000000000E+04
     -7.00000000000000E+00   0.00000000000000E+00  -3.21405841119519E+09   2.93483090105345E-15  -3.05122861270577E-13
     -2.93483090023404E-15  -3.05120437951413E-13  -2.93483090152421E-15  -3.21405841119519E+09   2.93483090088643E-15
      1.66810053720006E+04
     -7.00000000000000E+00   0.00000000000000E+00  -3.21405841119519E+09   2.93482747552491E-15  -4.66460582267333E-13
     -2.93482747546675E-15  -4.66466822059671E-13  -2.93482747574115E-15  -3.21405841119519E+09   2.93482747584523E-15
      2.78255940220712E+04
     -7.00000000000000E+00   0.00000000000000E+00  -3.21405841119519E+09   2.93482240797148E-15  -9.15378591430011E-13
     -2.93482240808498E-15  -9.15388210047941E-13  -2.93482240800615E-15  -3.21405841119519E+09   2.93482240747891E-15
      4.64158883361278E+04
     -7.00000000000000E+00   0.00000000000000E+00  -3.21405841119519E+09   2.93481004756327E-15  -2.16443743567128E-12
     -2.93481004751398E-15  -2.16443579318440E-12  -2.93481004755428E-15  -3.21405841119519E+09   2.93481004707107E-15
      7.74263682681127E+04
     -7.00000000000000E+00   0.00000000000000E+00  -3.21405841119519E+09   2.93477685410245E-15  -5.63962345657891E-12
     -2.93477685408892E-15  -5.63962019039423E-12  -2.93477685410179E-15  -3.21405841119519E+09   2.93477685396719E-15
      1.29154966501488E+05
     -7.00000000000000E+00   0.00000000000000E+00  -3.21405841119519E+09   2.93468629490313E-15  -1.53082077745392E-11
     -2.93468629486491E-15  -1.53082048163211E-11  -2.93468629491792E-15  -3.21405841119519E+09   2.93468629527631E-15
      2.15443469003188E+05
     -7.00000000000000E+00   0.00000000000000E+00  -3.21405841119519E+09   2.93443657439595E-15  -4.22067039550457E-11
     -2.93443657439725E-15  -4.22066982495466E-11  -2.93443657447478E-15  -3.21405841119519E+09   2.93443657483764E-15
      3.59381366380463E+05
     -7.00000000000000E+00   0.00000000000000E+00  -3.21405841119519E+09   2.93374378284540E-15  -1.17023586226532E-10
     -2.93374378283787E-15  -1.17023582208258E-10  -2.93374378296715E-15  -3.21405841119519E+09   2.93374378258080E-15
      5.99484250318941E+05
     -7.00000000000000E+00   0.00000000000000E+00  -3.21405841119519E+09   2.93181936349637E-15  -3.24984217002996E-10
     -2.93181936347740E-15  -3.24984210895789E-10  -2.93181936354007E-15  -3.21405841119519E+09   2.93181936377703E-15
      1.00000000000000E+06
     -7.00000000000000E+00   0.00000000000000E+00  -3.21405841119519E+09   2.92648129079071E-15  -9.01945419757184E-10
     -2.92648129077380E-15  -9.01945410421627E-10  -2.92648129082802E-15  -3.21405841119519E+09   2.92648129162653E-15
      1.00000000000000E+04
     -8.00000000000000E+00   0.00000000000000E+00  -3.21405841119519E+09   2.80357392257683E-15  -4.57001383423013E-13
     -2.80357392276714E-15  -4.57002068734129E-13  -2.80357392272258E-15  -3.21405841119519E+09   2.80357392333215E-15
      1.66810053720006E+04
     -8.00000000000000E+00   0.00000000000000E+00  -3.21405841119519E+09   2.80357104608068E-15  -6.02183099324565E-13
     -2.80357104678291E-15  -6.02184405727012E-13  -2.80357104626546E-15  -3.21405841119519E+09   2.80357104763823E-15
      2.78255940220712E+04
     -8.00000000000000E+00   0.00000000000000E+00  -3.21405841119519E+09   2.80356670533685E-15  -1.00614929803028E-12
     -2.80356670547215E-15  -1.00613351837379E-12  -2.80356670551363E-15  -3.21405841119519E+09   2.80356670583478E-15
      4.64158883361278E+04
     -8.00000000000000E+00   0.00000000000000E+00  -3.21405841119519E+09   2.80355607458665E-15  -2.13012761125972E-12
     -2.80355607458860E-15  -2.13012563210255E-12  -2.80355607462704E-15  -3.21405841119519E+09   2.80355607519661E-15
      7.74263682681127E+04
     -8.00000000000000E+00   0.00000000000000E+00  -3.21405841119519E+09   2.80352757188339E-15  -5.25728992244189E-12
     -2.80352757186455E-15  -5.25729627511712E-12  -2.80352757181282E-15  -3.21405841119519E+09   2.80352757176911E-15
      1.29154966501488E+05
     -8.00000000000000E+00   0.00000000000000E+00  -3.21405841119519E+09   2.80344999357349E-15  -1.39575766328530E-11
     -2.80344999354459E-15  -1.39575697396539E-11  -2.80344999365478E-15  -3.21405841119519E+09   2.80344999356511E-15
      2.15443469003188E+05
     -8.00000000000000E+00   0.00000000000000E+00  -3.21405841119519E+09   2.80323634705245E-15  -3.81624224509867E-11
     -2.80323634703226E-15  -3.81624189647386E-11  -2.80323634701643E-15  -3.21405841119519E+09   2.80323634721588E-15
      3.59381366380463E+05
     -8.00000000000000E+00   0.00000000000000E+00  -3.21405841119519E+09   2.80264386015364E-15  -1.05489386921925E-10
     -2.80264386014798E-15  -1.05489381550320E-10  -2.80264386002974E-15  -3.21405841119519E+09   2.80264386058905E-15
      5.99484250318941E+05
     -8.00000000000000E+00   0.00000000000000E+00  -3.21405841119519E+09   2.80099807773524E-15  -2.92650040122914E-10
     -2.80099807770140E-15  -2.92650051225787E-10  -2.80099807773665E-15  -3.21405841119519E+09   2.80099807726195E-15
      1.00000000000000E+06
     -8.00000000000000E+00   0.00000000000000E+00  -3.21405841119519E+09   2.79643175879138E-15  -8.12051332541903E-10
     -2.79643175878952E-15  -8.12051336447369E-10  -2.79643175891328E-15  -3.21405841119519E+09   2.79643175884775E-15
      1.00000000000000E+04
     -9.00000000000000E+00   0.00000000000000E+00  -3.21405841119519E+09   2.74052911560943E-15  -9.89909414071731E-13
     -2.74052911626702E-15  -9.89904975253385E-13  -2.74052911610721E-15  -3.21405841119519E+09   2.74052911761079E-15
      1.66810053720006E+04
     -9.00000000000000E+00   0.00000000000000E+00  -3.21405841119519E+09   2.74052655491663E-15  -1.12722022415423E-12
     -2.74052655506404E-15  -1.12721654574486E-12  -2.74052655515852E-15  -3.21405841119519E+09   2.74052655479162E-15
      2.78255940220712E+04
     -9.00000000000000E+00   0.00000000000000E+00  -3.21405841119519E+09   2.74052260260230E-15  -1.50928338044574E-12
     -2.74052260262825E-15  -1.50928626671592E-12  -2.74052260259072E-15  -3.21405841119519E+09   2.74052260375558E-15
      4.64158883361278E+04
     -9.00000000000000E+00   0.00000000000000E+00  -3.21405841119519E+09   2.74051286448855E-15  -2.57232325111594E-12
     -2.74051286447800E-15  -2.57232215390591E-12  -2.74051286451360E-15  -3.21405841119519E+09   2.74051286596714E-15
      7.74263682681127E+04
     -9.00000000000000E+00   0.00000000000000E+00  -3.21405841119519E+09   2.74048672995046E-15  -5.52995292640906E-12
     -2.74048672995384E-15  -5.52994551516342E-12  -2.74048673007660E-15  -3.21405841119519E+09   2.74048673039833E-15
      1.29154966501488E+05
     -9.00000000000000E+00   0.00000000000000E+00  -3.21405841119519E+09   2.74041559436545E-15  -1.37586104732753E-11
     -2.74041559435912E-15  -1.37586003103042E-11  -2.74041559439831E-15  -3.21405841119519E+09   2.74041559463205E-15
      2.15443469003188E+05
     -9.00000000000000E+00   0.00000000000000E+00  -3.21405841119519E+09   2.74021970775550E-15  -3.66515457455353E-11
     -2.74021970772458E-15  -3.66515427217287E-11  -2.74021970766378E-15  -3.21405841119519E+09   2.74021970812010E-15
      3.59381366380463E+05
     -9.00000000000000E+00   0.00000000000000E+00  -3.21405841119519E+09   2.73967647760657E-15  -1.00330742122258E-10
     -2.73967647761225E-15  -1.00330742957763E-10  -2.73967647744115E-15  -3.21405841119519E+09   2.73967647783874E-15
      5.99484250318941E+05
     -9.00000000000000E+00   0.00000000000000E+00  -3.21405841119519E+09   2.73816742767203E-15  -2.77361493402600E-10
     -2.73816742766664E-15  -2.77361491435926E-10  -2.73816742772051E-15  -3.21405841119519E+09   2.73816742728058E-15
      1.00000000000000E+06
     -9.00000000000000E+00   0.00000000000000E+00  -3.21405841119519E+09   2.73397977414229E-15  -7.68730719718954E-10
     -2.73397977413200E-15  -7.68730717495729E-10  -2.73397977425478E-15  -3.21405841119519E+09   2.73397977485329E-15
      1.00000000000000E+04
     -1.00000000000000E+01   0.00000000000000E+00  -3.21405841119519E+09   2.72621233078703E-15  -2.56446318316787E-13
     -2.72621233103755E-15  -2.56453438491044E-13  -2.72621233092284E-15  -3.21405841119519E+09   2.72621233138112E-15
      1.66810053720006E+04
     -1.00000000000000E+01   0.00000000000000E+00  -3.21405841119519E+09   2.72620998925997E-15  -3.92721193956521E-13
     -2.72620998939719E-15  -3.92723555007003E-13  -2.72620998943953E-15  -3.21405841119519E+09   2.72620998962066E-15
      2.78255940220712E+04
     -1.00000000000000E+01   0.00000000000000E+00  -3.21405841119519E+09   2.72620614480344E-15  -7.71902279499339E-13
     -2.72620614487758E-15  -7.71899816063135E-13  -2.72620614491416E-15  -3.21405841119519E+09   2.72620614472829E-15
      4.64158883361278E+04
     -1.00000000000000E+01   0.00000000000000E+00  -3.21405841119519E+09   2.72619652223990E-15  -1.82692586184640E-12
     -2.72619652223690E-15  -1.82692595399379E-12  -2.72619652227900E-15  -3.21405841119519E+09   2.72619652130944E-15
      7.74263682681127E+04
     -1.00000000000000E+01   0.00000000000000E+00  -3.21405841119519E+09   2.72617062746645E-15  -4.76225563613762E-12
     -2.72617062747159E-15  -4.76226001643503E-12  -2.72617062750801E-15  -3.21405841119519E+09   2.72617062842911E-15
      1.29154966501488E+05
     -1.00000000000000E+01   0.00000000000000E+00  -3.21405841119519E+09   2.72610010082445E-15  -1.29288829153636E-11
     -2.72610010081338E-15  -1.29288799933665E-11  -2.72610010087268E-15  -3.21405841119519E+09   2.72610010034505E-15
      2.15443469003188E+05
     -1.00000000000000E+01   0.00000000000000E+00  -3.21405841119519E+09   2.72590586403230E-15  -3.56492564030597E-11
     -2.72590586402799E-15  -3.56492480266663E-11  -2.72590586405863E-15  -3.21405841119519E+09   2.72590586351794E-15
      3.59381366380463E+05
     -1.00000000000000E+01   0.00000000000000E+00  -3.21405841119519E+09   2.72536719332720E-15  -9.88484987707999E-11
     -2.72536719333067E-15  -9.88484950386519E-11  -2.72536719330237E-15  -3.21405841119519E+09   2.72536719424478E-15
      5.99484250318941E+05
     -1.00000000000000E+01   0.00000000000000E+00  -3.21405841119519E+09   2.72387079286920E-15  -2.74545228000091E-10
     -2.72387079285741E-15  -2.74545237314954E-10  -2.72387079278222E-15  -3.21405841119519E+09   2.72387079241155E-15
      1.00000000000000E+06
     -1.00000000000000E+01   0.00000000000000E+00  -3.21405841119519E+09   2.71971821376933E-15  -7.62213654887795E-10
     -2.71971821375185E-15  -7.62213643214918E-10  -2.71971821397196E-15  -3.21405841119519E+09   2.71971821382324E-15
      1.00000000000000E+04
     -1.10000000000000E+01   0.00000000000000E+00  -3.21405841119519E+09   2.69932897608896E-15  -2.15216415761679E-13
     -2.69932897567021E-15  -2.15222614804173E-13  -2.69932897573675E-15  -3.21405841119519E+09   2.69932897546676E-15
      1.66810053720006E+04
     -1.10000000000000E+01   0.00000000000000E+00  -3.21405841119519E+09   2.69932679724136E-15  -3.49381247724688E-13