DF-ISE text

Info {
  version   = 1.0
  type      = xyplot
  datasets  = [
    "time"
    "cathode OuterVoltage" "cathode InnerVoltage" "cathode QuasiFermiPotential" "cathode DisplacementCurrent" "cathode eCurrent"
    "cathode hCurrent" "cathode TotalCurrent" "cathode Charge" "anode OuterVoltage" "anode InnerVoltage"
    "anode QuasiFermiPotential" "anode DisplacementCurrent" "anode eCurrent" "anode hCurrent" "anode TotalCurrent"
    "anode Charge" ]
  functions = [
    Time
    OuterVoltage InnerVoltage QuasiFermiPotential DisplacementCurrent eCurrent
    hCurrent TotalCurrent Charge OuterVoltage InnerVoltage
    QuasiFermiPotential DisplacementCurrent eCurrent hCurrent TotalCurrent
    Charge ]
}

Data {
      0.00000000000000E+00
      0.00000000000000E+00   0.00000000000000E+00   0.00000000000000E+00   0.00000000000000E+00   1.32353967157931E-17
      0.00000000000000E+00   1.32353967157931E-17   2.32829039722836E-14   0.00000000000000E+00   0.00000000000000E+00
      0.00000000000000E+00   0.00000000000000E+00  -3.24300040262819E-21   0.00000000000000E+00  -3.24300040262819E-21
     -2.32829039722836E-14
      1.00000000000000E-07
      0.00000000000000E+00   0.00000000000000E+00   0.00000000000000E+00   0.00000000000000E+00  -1.63132862676635E-18
      0.00000000000000E+00  -1.63132862676635E-18   2.32831624185023E-14  -1.00000000000000E-05  -9.99999999998688E-06
      0.00000000000000E+00   0.00000000000000E+00   2.83172206050557E-21   0.00000000000000E+00   2.83172206050557E-21
     -2.32831624185023E-14
      2.38266666666667E-07
      0.00000000000000E+00   0.00000000000000E+00   0.00000000000000E+00   0.00000000000000E+00   8.96622229738121E-18
      0.00000000000000E+00   8.96622229738121E-18   2.32835197634185E-14  -2.38266666666667E-05  -2.38266666666555E-05
      0.00000000000000E+00   0.00000000000000E+00   5.78630124515167E-21   0.00000000000000E+00   5.78630124515167E-21
     -2.32835197634185E-14
      4.29443377777778E-07
      0.00000000000000E+00   0.00000000000000E+00   0.00000000000000E+00   0.00000000000000E+00   2.66403641770422E-18
      0.00000000000000E+00   2.66403641770422E-18   2.32840138522168E-14  -4.29443377777778E-05  -4.29443377777834E-05
      0.00000000000000E+00   0.00000000000000E+00   4.06070065999754E-21   0.00000000000000E+00   4.06070065999754E-21
     -2.32840138522168E-14
      6.93777043674074E-07
      0.00000000000000E+00   0.00000000000000E+00   0.00000000000000E+00   0.00000000000000E+00   9.66166674416462E-18
      0.00000000000000E+00   9.66166674416462E-18   2.32846970121259E-14  -6.93777043674074E-05  -6.93777043674096E-05
      0.00000000000000E+00   0.00000000000000E+00   1.17761850881473E-20   0.00000000000000E+00   1.17761850881473E-20
     -2.32846970121259E-14
      1.05926239238669E-06
      0.00000000000000E+00   0.00000000000000E+00   0.00000000000000E+00   0.00000000000000E+00   1.10639164811432E-18
      0.00000000000000E+00   1.10639164811432E-18   2.32856415941730E-14  -1.05926239238669E-04  -1.05926239238671E-04
      0.00000000000000E+00   0.00000000000000E+00   1.30048940656423E-20   0.00000000000000E+00   1.30048940656423E-20
     -2.32856415941730E-14
      1.56460680120666E-06
      0.00000000000000E+00   0.00000000000000E+00   0.00000000000000E+00   0.00000000000000E+00  -3.51885060704033E-17
      0.00000000000000E+00  -3.51885060704033E-17   2.32869476355430E-14  -1.56460680120666E-04  -1.56460680120706E-04
      0.00000000000000E+00   0.00000000000000E+00  -1.61449362723975E-20   0.00000000000000E+00  -1.61449362723975E-20
     -2.32869476355430E-14
      2.26332967046841E-06
      0.00000000000000E+00   0.00000000000000E+00   0.00000000000000E+00   0.00000000000000E+00  -7.27736941032942E-18
      0.00000000000000E+00  -7.27736941032942E-18   2.32887534539953E-14  -2.26332967046841E-04  -2.26332967046850E-04
      0.00000000000000E+00   0.00000000000000E+00  -1.61502817863146E-20   0.00000000000000E+00  -1.61502817863146E-20
     -2.32887534539952E-14
      3.22943049103432E-06
      0.00000000000000E+00   0.00000000000000E+00   0.00000000000000E+00   0.00000000000000E+00   2.96696335946077E-17
      0.00000000000000E+00   2.96696335946077E-17   2.32912502962697E-14  -3.22943049103432E-04  -3.22943049103449E-04
      0.00000000000000E+00   0.00000000000000E+00  -1.60755419080801E-20   0.00000000000000E+00  -1.60755419080801E-20
     -2.32912502962696E-14
      4.56522589227012E-06
      0.00000000000000E+00   0.00000000000000E+00   0.00000000000000E+00   0.00000000000000E+00   2.23423368267015E-17
      0.00000000000000E+00   2.23423368267015E-17   2.32947025916824E-14  -4.56522589227012E-04  -4.56522589226987E-04
      0.00000000000000E+00   0.00000000000000E+00  -1.37047268216833E-20   0.00000000000000E+00  -1.37047268216833E-20
     -2.32947025916823E-14
      6.41218566704548E-06
      0.00000000000000E+00   0.00000000000000E+00   0.00000000000000E+00   0.00000000000000E+00  -2.95742972924595E-17
      0.00000000000000E+00  -2.95742972924595E-17   2.32994759555869E-14  -6.41218566704548E-04  -6.41218566704543E-04
      0.00000000000000E+00   0.00000000000000E+00  -3.17398449619570E-20   0.00000000000000E+00  -3.17398449619570E-20
     -2.32994759555869E-14
      8.96591538230155E-06
      0.00000000000000E+00   0.00000000000000E+00   0.00000000000000E+00   0.00000000000000E+00  -2.83057559979703E-17
      0.00000000000000E+00  -2.83057559979703E-17   2.33060759078498E-14  -8.96591538230155E-04  -8.96591538230172E-04
      0.00000000000000E+00   0.00000000000000E+00  -4.19804533499001E-20   0.00000000000000E+00  -4.19804533499001E-20
     -2.33060759078498E-14
      1.24968723352623E-05
      0.00000000000000E+00   0.00000000000000E+00   0.00000000000000E+00   0.00000000000000E+00  -3.41817150985321E-18
      0.00000000000000E+00  -3.41817150985321E-18   2.33152014057312E-14  -1.24968723352623E-03  -1.24968723352626E-03
      0.00000000000000E+00   0.00000000000000E+00  -6.74987863473357E-20   0.00000000000000E+00  -6.74987863473357E-20
     -2.33152014057312E-14
      1.73790088155560E-05
      0.00000000000000E+00   0.00000000000000E+00   0.00000000000000E+00   0.00000000000000E+00  -5.36450079999572E-17
      0.00000000000000E+00  -5.36450079999572E-17   2.33278188584542E-14  -1.73790088155560E-03  -1.73790088155562E-03
      0.00000000000000E+00   0.00000000000000E+00  -7.01611001194396E-20   0.00000000000000E+00  -7.01611001194396E-20
     -2.33278188584542E-14
      2.41293761889754E-05
      0.00000000000000E+00   0.00000000000000E+00   0.00000000000000E+00   0.00000000000000E+00  -2.92374222947363E-18
      0.00000000000000E+00  -2.92374222947363E-18   2.33452644578853E-14  -2.41293761889754E-03  -2.41293761889754E-03
      0.00000000000000E+00   0.00000000000000E+00  -9.56596469116922E-20   0.00000000000000E+00  -9.56596469116922E-20
     -2.33452644578852E-14
      3.34628841439567E-05
      0.00000000000000E+00   0.00000000000000E+00   0.00000000000000E+00   0.00000000000000E+00   1.38519969053442E-18
      0.00000000000000E+00   1.38519969053442E-18   2.33693856547878E-14  -3.34628841439567E-03  -3.34628841439564E-03
      0.00000000000000E+00   0.00000000000000E+00  -1.23965198064884E-19   0.00000000000000E+00  -1.23965198064884E-19
     -2.33693856547878E-14
      4.63680144763774E-05
      0.00000000000000E+00   0.00000000000000E+00   0.00000000000000E+00   0.00000000000000E+00  -2.81525480093879E-18
      0.00000000000000E+00  -2.81525480093879E-18   2.34027367486016E-14  -4.63680144763774E-03  -4.63680144763776E-03
      0.00000000000000E+00   0.00000000000000E+00  -1.80081499539423E-19   0.00000000000000E+00  -1.80081499539423E-19
     -2.34027367486015E-14
      6.42115080160045E-05
      0.00000000000000E+00   0.00000000000000E+00   0.00000000000000E+00   0.00000000000000E+00   1.49656307369177E-17
      0.00000000000000E+00   1.49656307369177E-17   2.34488492758318E-14  -6.42115080160045E-03  -6.42115080160047E-03
      0.00000000000000E+00   0.00000000000000E+00  -2.58922132057246E-19   0.00000000000000E+00  -2.58922132057246E-19
     -2.34488492758318E-14
      8.83953895933791E-05
      0.00000000000000E+00   0.00000000000000E+00   0.00000000000000E+00   0.00000000000000E+00   1.50107391645488E-18
      0.00000000000000E+00   1.50107391645488E-18   2.35113454227490E-14  -8.83953895933791E-03  -8.83953895933793E-03
      0.00000000000000E+00   0.00000000000000E+00  -3.47310230555060E-19   0.00000000000000E+00  -3.47310230555060E-19
     -2.35113454227490E-14
      1.21172610424581E-04
      0.00000000000000E+00   0.00000000000000E+00   0.00000000000000E+00   0.00000000000000E+00   1.71276258977012E-17
      0.00000000000000E+00   1.71276258977012E-17   2.35960454217494E-14  -1.21172610424581E-02  -1.21172610424581E-02
      0.00000000000000E+00   0.00000000000000E+00  -4.76526138296857E-19   0.00000000000000E+00  -4.76526138296857E-19
     -2.35960454217494E-14
      1.65596670391136E-04
      0.00000000000000E+00   0.00000000000000E+00   0.00000000000000E+00   0.00000000000000E+00   2.51862495674631E-17
      0.00000000000000E+00   2.51862495674631E-17   2.37108364548379E-14  -1.65596670391136E-02  -1.65596670391136E-02
      0.00000000000000E+00   0.00000000000000E+00  -6.35317703233643E-19   0.00000000000000E+00  -6.35317703233643E-19
     -2.37108364548380E-14
      2.25806079665807E-04
      0.00000000000000E+00   0.00000000000000E+00   0.00000000000000E+00   0.00000000000000E+00   1.98770263949429E-18
      0.00000000000000E+00   1.98770263949429E-18   2.38664061409774E-14  -2.25806079665807E-02  -2.25806079665807E-02
      0.00000000000000E+00   0.00000000000000E+00  -8.49249545551635E-19   0.00000000000000E+00  -8.49249545551635E-19
     -2.38664061409774E-14
      3.07409899036079E-04
      0.00000000000000E+00   0.00000000000000E+00   0.00000000000000E+00   0.00000000000000E+00   3.08233074609128E-17
      0.00000000000000E+00   3.08233074609128E-17   2.40772358588582E-14  -3.07409899036079E-02  -3.07409899036079E-02
      0.00000000000000E+00   0.00000000000000E+00  -1.12339630820579E-18   0.00000000000000E+00  -1.12339630820579E-18
     -2.40772358588581E-14
      4.18010275555920E-04
      0.00000000000000E+00   0.00000000000000E+00   0.00000000000000E+00   0.00000000000000E+00   1.76077165679507E-17
      0.00000000000000E+00   1.76077165679507E-17   2.43629455732974E-14  -4.18010275555920E-02  -4.18010275555920E-02
      0.00000000000000E+00   0.00000000000000E+00  -1.50133503024534E-18   0.00000000000000E+00  -1.50133503024534E-18
     -2.43629455732974E-14
      5.67910652532477E-04
      0.00000000000000E+00   0.00000000000000E+00   0.00000000000000E+00   0.00000000000000E+00  -2.21367744801581E-17
      0.00000000000000E+00  -2.21367744801581E-17   2.47501138330288E-14  -5.67910652532477E-02  -5.67910652532477E-02
      0.00000000000000E+00   0.00000000000000E+00  -2.03362472030667E-18   0.00000000000000E+00  -2.03362472030667E-18
     -2.47501138330289E-14
      7.66978353157346E-04
      0.00000000000000E+00   0.00000000000000E+00   0.00000000000000E+00   0.00000000000000E+00   5.32975313772857E-17
      0.00000000000000E+00   5.32975313772857E-17   2.52641604679618E-14  -7.66978353157346E-02  -7.66978353157347E-02
      0.00000000000000E+00   0.00000000000000E+00  -2.79883105643808E-18   0.00000000000000E+00  -2.79883105643808E-18
     -2.52641604679618E-14
      1.03134025958717E-03
      0.00000000000000E+00   0.00000000000000E+00   0.00000000000000E+00   0.00000000000000E+00  -2.05616275518378E-17
      0.00000000000000E+00  -2.05616275518378E-17   2.59466151135709E-14  -1.03134025958717E-01  -1.03134025958717E-01
      0.00000000000000E+00   0.00000000000000E+00  -3.93407381602637E-18   0.00000000000000E+00  -3.93407381602637E-18
     -2.59466151135710E-14
      1.38963876343506E-03
      0.00000000000000E+00   0.00000000000000E+00   0.00000000000000E+00   0.00000000000000E+00  -5.20191799414696E-18
      0.00000000000000E+00  -5.20191799414696E-18   2.68712010006438E-14  -1.38963876343506E-01  -1.38963876343506E-01
      0.00000000000000E+00   0.00000000000000E+00  -5.72019640127194E-18   0.00000000000000E+00  -5.72019640127194E-18
     -2.68712010006438E-14
      1.87525266898357E-03
      0.00000000000000E+00   0.00000000000000E+00   0.00000000000000E+00   0.00000000000000E+00   1.14901118487744E-17
      0.00000000000000E+00   1.14901118487744E-17   2.81236247426109E-14  -1.87525266898357E-01  -1.87525266898357E-01
      0.00000000000000E+00   0.00000000000000E+00  -8.29452554690089E-18   0.00000000000000E+00  -8.29452554690089E-18
     -2.81236247426109E-14
      2.53342138230365E-03
      0.00000000000000E+00   0.00000000000000E+00   0.00000000000000E+00   0.00000000000000E+00   1.27194355109949E-17
      0.00000000000000E+00   1.27194355109949E-17   2.98197125074629E-14  -2.53342138230365E-01  -2.53342138230365E-01
      0.00000000000000E+00   0.00000000000000E+00  -1.10741479402966E-17   0.00000000000000E+00  -1.10741479402966E-17
     -2.98197125074628E-14
      3.40746943359271E-03
      0.00000000000000E+00   0.00000000000000E+00   0.00000000000000E+00   0.00000000000000E+00   3.73727206827031E-17
      0.00000000000000E+00   3.73727206827031E-17   3.20695080260226E-14  -3.40746943359271E-01  -3.40746943359270E-01
      0.00000000000000E+00   0.00000000000000E+00  -1.24802163054137E-17   0.00000000000000E+00  -1.24802163054137E-17
     -3.20695080260226E-14
      4.56820524570458E-03
      0.00000000000000E+00   0.00000000000000E+00   0.00000000000000E+00   0.00000000000000E+00   6.92241702583953E-18
      0.00000000000000E+00   6.92241702583953E-18   3.50525345016139E-14  -4.56820524570458E-01  -4.56820524570458E-01
      0.00000000000000E+00   0.00000000000000E+00  -1.29668739125557E-17   0.00000000000000E+00  -1.29668739125557E-17
     -3.50525345016139E-14
      6.10966240418915E-03
      0.00000000000000E+00   0.00000000000000E+00   0.00000000000000E+00   0.00000000000000E+00   2.41149222190147E-17
      0.00000000000000E+00   2.41149222190147E-17   3.90058982215381E-14  -6.10966240418915E-01  -6.10966240418915E-01
      0.00000000000000E+00   0.00000000000000E+00  -1.42105465844302E-17   0.00000000000000E+00  -1.42105465844302E-17
     -3.90058982215381E-14
      8.15671751065666E-03
      0.00000000000000E+00   0.00000000000000E+00   0.00000000000000E+00   0.00000000000000E+00   1.70578459470451E-17
      0.00000000000000E+00   1.70578459470451E-17   4.42401279528646E-14  -8.15671751065666E-01  -8.15671751065665E-01
      0.00000000000000E+00   0.00000000000000E+00  -1.81055981057878E-17   0.00000000000000E+00  -1.81055981057878E-17
     -4.42401279528646E-14
      1.00000000000000E-02
      0.00000000000000E+00   0.00000000000000E+00   0.00000000000000E+00   0.00000000000000E+00   4.32526615567273E-18
      0.00000000000000E+00   4.32526615567273E-18   4.89346232246902E-14  -1.00000000000000E+00  -1.00000000000000E+00
      0.00000000000000E+00   0.00000000000000E+00  -2.30808144662842E-17   0.00000000000000E+00  -2.30808144662842E-17
     -4.89346232246903E-14
      1.27184891813888E-02
      0.00000000000000E+00   0.00000000000000E+00   0.00000000000000E+00   0.00000000000000E+00   7.85522487102286E-18
      0.00000000000000E+00   7.85522487102286E-18   5.58061185457351E-14  -1.27184891813888E+00  -1.27184891813889E+00
      0.00000000000000E+00   0.00000000000000E+00  -3.34649457453447E-17   0.00000000000000E+00  -3.34649457453447E-17
     -5.58061185457352E-14
      1.62543374433153E-02
      0.00000000000000E+00   0.00000000000000E+00   0.00000000000000E+00   0.00000000000000E+00   4.57964686904168E-17
      0.00000000000000E+00   4.57964686904168E-17   6.44942934285847E-14  -1.62543374433153E+00  -1.62543374433153E+00
      0.00000000000000E+00   0.00000000000000E+00  -3.78287556429159E-17   0.00000000000000E+00  -3.78287556429159E-17
     -6.44942934285847E-14
      2.00000000000000E-02
      0.00000000000000E+00   0.00000000000000E+00   0.00000000000000E+00   0.00000000000000E+00   6.25306784946910E-17
      0.00000000000000E+00   6.25306784946910E-17   7.26091076138491E-14  -2.00000000000000E+00  -2.00000000000000E+00
      0.00000000000000E+00   0.00000000000000E+00  -4.64431558371503E-17   0.00000000000000E+00  -4.64431558371503E-17
     -7.26091076138491E-14
      2.11014167335901E-02
      0.00000000000000E+00   0.00000000000000E+00   0.00000000000000E+00   0.00000000000000E+00   2.50124003169310E-17
      0.00000000000000E+00   2.50124003169310E-17   7.39968430430947E-14  -2.11014167335901E+00  -2.11014167335901E+00
      0.00000000000000E+00   0.00000000000000E+00  -4.86049251674069E-17   0.00000000000000E+00  -4.86049251674069E-17
     -7.39968430430948E-14
      2.24436765929252E-02
      0.00000000000000E+00   0.00000000000000E+00   0.00000000000000E+00   0.00000000000000E+00   7.66598309206177E-17
      0.00000000000000E+00   7.66598309206177E-17   7.54139445814042E-14  -2.24436765929252E+00  -2.24436765929252E+00
      0.00000000000000E+00   0.00000000000000E+00  -5.31496429591056E-17   0.00000000000000E+00  -5.31496429591056E-17
     -7.54139445814042E-14
      2.42261976861222E-02
      0.00000000000000E+00   0.00000000000000E+00   0.00000000000000E+00   0.00000000000000E+00   8.60521759678323E-17
      0.00000000000000E+00   8.60521759678323E-17   7.71557424526024E-14  -2.42261976861222E+00  -2.42261976861222E+00
      0.00000000000000E+00   0.00000000000000E+00  -6.33151784175549E-17   0.00000000000000E+00  -6.33151784175549E-17
     -7.71557424526025E-14
      2.65446634546738E-02
      0.00000000000000E+00   0.00000000000000E+00   0.00000000000000E+00   0.00000000000000E+00   1.57706424453330E-16
      0.00000000000000E+00   1.57706424453330E-16   7.93712326621076E-14  -2.65446634546738E+00  -2.65446634546738E+00
      0.00000000000000E+00   0.00000000000000E+00  -1.19773805815737E-16   0.00000000000000E+00  -1.19773805815737E-16
     -7.93712326621076E-14
      2.96235859953104E-02
      0.00000000000000E+00   0.00000000000000E+00   0.00000000000000E+00   0.00000000000000E+00   1.20293736342533E-16
      0.00000000000000E+00   1.20293736342533E-16   8.23193033854975E-14  -2.96235859953104E+00  -2.96235859953103E+00
      0.00000000000000E+00   0.00000000000000E+00  -1.35780888599537E-16   0.00000000000000E+00  -1.35780888599537E-16
     -8.23193033854974E-14
      3.00000000000000E-02
      0.00000000000000E+00   0.00000000000000E+00   0.00000000000000E+00   0.00000000000000E+00   1.52879493578826E-16
      0.00000000000000E+00   1.52879493578826E-16   8.26792834644326E-14  -3.00000000000000E+00  -3.00000000000000E+00
      0.00000000000000E+00   0.00000000000000E+00  -1.35997184681429E-16   0.00000000000000E+00  -1.35997184681429E-16
     -8.26792834644325E-14
      3.40888091339653E-02
      0.00000000000000E+00   0.00000000000000E+00   0.00000000000000E+00   0.00000000000000E+00   1.21648923805123E-16
      0.00000000000000E+00   1.21648923805123E-16   8.65724980949627E-14  -3.40888091339653E+00  -3.40888091339654E+00
      0.00000000000000E+00   0.00000000000000E+00  -1.40325484771875E-16   0.00000000000000E+00  -1.40325484771875E-16
     -8.65724980949627E-14
      3.95187476638712E-02
      0.00000000000000E+00   0.00000000000000E+00   0.00000000000000E+00   0.00000000000000E+00   2.08443956713652E-16
      0.00000000000000E+00   2.08443956713652E-16   9.16686306864666E-14  -3.95187476638712E+00  -3.95187476638712E+00
      0.00000000000000E+00   0.00000000000000E+00  -1.46380868624048E-16   0.00000000000000E+00  -1.46380868624048E-16
     -9.16686306864666E-14
      4.00000000000000E-02
      0.00000000000000E+00   0.00000000000000E+00   0.00000000000000E+00   0.00000000000000E+00   1.22406107379847E-16
      0.00000000000000E+00   1.22406107379847E-16   9.21082270912757E-14  -4.00000000000000E+00  -4.00000000000000E+00
      0.00000000000000E+00   0.00000000000000E+00  -1.47245436554703E-16   0.00000000000000E+00  -1.47245436554703E-16
     -9.21082270912757E-14
      4.72109583677151E-02
      0.00000000000000E+00   0.00000000000000E+00   0.00000000000000E+00   0.00000000000000E+00   1.70511949417321E-16
      0.00000000000000E+00   1.70511949417321E-16   9.79937327155892E-14  -4.72109583677151E+00  -4.72109583677151E+00
      0.00000000000000E+00   0.00000000000000E+00  -1.73205005081382E-16   0.00000000000000E+00  -1.73205005081382E-16
     -9.79937327155893E-14
      5.00000000000000E-02
      0.00000000000000E+00   0.00000000000000E+00   0.00000000000000E+00   0.00000000000000E+00   1.77944808110662E-16
      0.00000000000000E+00   1.77944808110662E-16   9.98084109526509E-14  -5.00000000000000E+00  -5.00000000000000E+00
      0.00000000000000E+00   0.00000000000000E+00  -1.83155681331258E-16   0.00000000000000E+00  -1.83155681331258E-16
     -9.98084109526510E-14
      5.89848541261730E-02
      0.00000000000000E+00   0.00000000000000E+00   0.00000000000000E+00   0.00000000000000E+00   2.90507478097643E-16
      0.00000000000000E+00   2.90507478097643E-16   1.02103843272712E-13  -5.89848541261730E+00  -5.89848541261729E+00
      0.00000000000000E+00   0.00000000000000E+00  -3.11646565023298E-16   0.00000000000000E+00  -3.11646565023298E-16
     -1.02103843272712E-13
      6.00000000000000E-02
      0.00000000000000E+00   0.00000000000000E+00   0.00000000000000E+00   0.00000000000000E+00   3.22894767590286E-16
      0.00000000000000E+00   3.22894767590286E-16   1.02302107384404E-13  -6.00000000000000E+00  -6.00000000000001E+00
      0.00000000000000E+00   0.00000000000000E+00  -3.33279061467035E-16   0.00000000000000E+00  -3.33279061467035E-16
     -1.02302107384404E-13
      7.00000000000000E-02
      0.00000000000000E+00   0.00000000000000E+00   0.00000000000000E+00   0.00000000000000E+00   4.74785477420718E-16
      0.00000000000000E+00   4.74785477420718E-16   1.03851948993438E-13  -7.00000000000000E+00  -7.00000000000001E+00
      0.00000000000000E+00   0.00000000000000E+00  -4.37541775475458E-16   0.00000000000000E+00  -4.37541775475458E-16
     -1.03851948993438E-13
      8.00000000000000E-02
      0.00000000000000E+00   0.00000000000000E+00   0.00000000000000E+00   0.00000000000000E+00   4.66506722600474E-16
      0.00000000000000E+00   4.66506722600474E-16   1.05058626820669E-13  -8.00000000000000E+00  -8.00000000000001E+00
      0.00000000000000E+00   0.00000000000000E+00  -4.66096111098829E-16   0.00000000000000E+00  -4.66096111098829E-16
     -1.05058626820670E-13
      9.00000000000000E-02
      0.00000000000000E+00   0.00000000000000E+00   0.00000000000000E+00   0.00000000000000E+00   5.49156277636444E-16
      0.00000000000000E+00   5.49156277636444E-16   1.06089601193172E-13  -9.00000000000000E+00  -9.00000000000001E+00
      0.00000000000000E+00   0.00000000000000E+00  -5.79445382087725E-16   0.00000000000000E+00  -5.79445382087725E-16
     -1.06089601193172E-13
      1.00000000000000E-01
      0.00000000000000E+00   0.00000000000000E+00   0.00000000000000E+00   0.00000000000000E+00   6.02366350739483E-16
      0.00000000000000E+00   6.02366350739483E-16   1.07038080697608E-13  -1.00000000000000E+01  -1.00000000000000E+01
      0.00000000000000E+00   0.00000000000000E+00  -6.07133507029622E-16   0.00000000000000E+00  -6.07133507029622E-16
     -1.07038080697608E-13
      1.10000000000000E-01
      0.00000000000000E+00   0.00000000000000E+00   0.00000000000000E+00   0.00000000000000E+00   6.71491381897507E-16
      0.00000000000000E+00   6.71491381897507E-16   1.07898571487451E-13  -1.10000000000000E+01  -1.10000000000000E+01
      0.00000000000000E+00   0.00000000000000E+00  -6.92794820421604E-16   0.00000000000000E+00  -6.92794820421604E-16
     -1.07898571487451E-13
      1.20000000000000E-01
      0.00000000000000E+00   0.00000000000000E+00   0.00000000000000E+00   0.00000000000000E+00   6.56587139024043E-16
      0.00000000000000E+00   6.56587139024043E-16   1.08716486985252E-13  -1.20000000000000E+01  -1.20000000000000E+01
      0.00000000000000E+00   0.00000000000000E+00  -7.09598367993906E-16   0.00000000000000E+00  -7.09598367993906E-16
     -1.08716486985252E-13
      1.30000000000000E-01
      0.00000000000000E+00   0.00000000000000E+00   0.00000000000000E+00   0.00000000000000E+00   7.69835457170630E-16
      0.00000000000000E+00   7.69835457170630E-16   1.09474324750288E-13  -1.30000000000000E+01  -1.30000000000000E+01
      0.00000000000000E+00   0.00000000000000E+00  -7.59421078430964E-16   0.00000000000000E+00  -7.59421078430964E-16
     -1.09474324750288E-13
      1.40000000000000E-01
      0.00000000000000E+00   0.00000000000000E+00   0.00000000000000E+00   0.00000000000000E+00   8.36742001031927E-16
      0.00000000000000E+00   8.36742001031927E-16   1.10191014382809E-13  -1.40000000000000E+01  -1.40000000000000E+01
      0.00000000000000E+00   0.00000000000000E+00  -8.42487662191733E-16   0.00000000000000E+00  -8.42487662191733E-16
     -1.10191014382809E-13
      1.50000000000000E-01
      0.00000000000000E+00   0.00000000000000E+00   0.00000000000000E+00   0.00000000000000E+00   8.69660194336409E-16
      0.00000000000000E+00   8.69660194336409E-16   1.10895336990667E-13  -1.50000000000000E+01  -1.50000000000000E+01
      0.00000000000000E+00   0.00000000000000E+00  -8.61522598745110E-16   0.00000000000000E+00  -8.61522598745110E-16
     -1.10895336990668E-13
      1.60000000000000E-01
      0.00000000000000E+00   0.00000000000000E+00   0.00000000000000E+00   0.00000000000000E+00   8.30050853813362E-16
      0.00000000000000E+00   8.30050853813362E-16   1.11561346678497E-13  -1.60000000000000E+01  -1.60000000000000E+01
      0.00000000000000E+00   0.00000000000000E+00  -8.63252721268261E-16   0.00000000000000E+00  -8.63252721268261E-16
     -1.11561346678498E-13
      1.70000000000000E-01
      0.00000000000000E+00   0.00000000000000E+00   0.00000000000000E+00   0.00000000000000E+00   8.77426449420105E-16
      0.00000000000000E+00   8.77426449420105E-16   1.12180858602310E-13  -1.70000000000000E+01  -1.70000000000000E+01
      0.00000000000000E+00   0.00000000000000E+00  -9.27282317950520E-16   0.00000000000000E+00  -9.27282317950520E-16
     -1.12180858602310E-13
      1.80000000000000E-01
      0.00000000000000E+00   0.00000000000000E+00   0.00000000000000E+00   0.00000000000000E+00   1.03461825184635E-15
      0.00000000000000E+00   1.03461825184635E-15   1.12789001638191E-13  -1.80000000000000E+01  -1.80000000000000E+01
      0.00000000000000E+00   0.00000000000000E+00  -1.01554061636826E-15   0.00000000000000E+00  -1.01554061636826E-15
     -1.12789001638191E-13
      1.90000000000000E-01
      0.00000000000000E+00   0.00000000000000E+00   0.00000000000000E+00   0.00000000000000E+00   1.03571673491410E-15
      0.00000000000000E+00   1.03571673491410E-15   1.13389538741305E-13  -1.90000000000000E+01  -1.90000000000000E+01
      0.00000000000000E+00   0.00000000000000E+00  -1.01727174380592E-15   0.00000000000000E+00  -1.01727174380592E-15
     -1.13389538741304E-13
      2.00000000000000E-01
      0.00000000000000E+00   0.00000000000000E+00   0.00000000000000E+00   0.00000000000000E+00   1.05714345685718E-15
      0.00000000000000E+00   1.05714345685718E-15   1.13959222388799E-13  -2.00000000000000E+01  -2.00000000000000E+01
      0.00000000000000E+00   0.00000000000000E+00  -1.01727182786839E-15   0.00000000000000E+00  -1.01727182786839E-15
     -1.13959222388799E-13
      2.10000000000000E-01
      0.00000000000000E+00   0.00000000000000E+00   0.00000000000000E+00   0.00000000000000E+00   1.05933032721467E-15
      0.00000000000000E+00   1.05933032721467E-15   1.14459203719802E-13  -2.10000000000000E+01  -2.10000000000000E+01
      0.00000000000000E+00   0.00000000000000E+00  -1.03457572042591E-15   0.00000000000000E+00  -1.03457572042591E-15
     -1.14459203719802E-13
      2.20000000000000E-01
      0.00000000000000E+00   0.00000000000000E+00   0.00000000000000E+00   0.00000000000000E+00   1.16535459908455E-15
      0.00000000000000E+00   1.16535459908455E-15   1.14943460594290E-13  -2.20000000000000E+01  -2.20000000000000E+01
      0.00000000000000E+00   0.00000000000000E+00  -1.15571328085525E-15   0.00000000000000E+00  -1.15571328085525E-15
     -1.14943460594290E-13
      2.30000000000000E-01
      0.00000000000000E+00   0.00000000000000E+00   0.00000000000000E+00   0.00000000000000E+00   1.17506764008070E-15
      0.00000000000000E+00   1.17506764008070E-15   1.15424059101775E-13  -2.30000000000000E+01  -2.30000000000000E+01
      0.00000000000000E+00   0.00000000000000E+00  -1.17647948613753E-15   0.00000000000000E+00  -1.17647948613753E-15
     -1.15424059101775E-13
      2.40000000000000E-01
      0.00000000000000E+00   0.00000000000000E+00   0.00000000000000E+00   0.00000000000000E+00   1.19030828211053E-15
      0.00000000000000E+00   1.19030828211053E-15   1.15902576395749E-13  -2.40000000000000E+01  -2.40000000000000E+01
      0.00000000000000E+00   0.00000000000000E+00  -1.17647952851486E-15   0.00000000000000E+00  -1.17647952851486E-15
     -1.15902576395749E-13
      2.50000000000000E-01
      0.00000000000000E+00   0.00000000000000E+00   0.00000000000000E+00   0.00000000000000E+00   1.15911189246811E-15
      0.00000000000000E+00   1.15911189246811E-15   1.16365559177099E-13  -2.50000000000000E+01  -2.50000000000000E+01
      0.00000000000000E+00   0.00000000000000E+00  -1.17647944824425E-15   0.00000000000000E+00  -1.17647944824425E-15
     -1.16365559177099E-13
      2.60000000000000E-01
      0.00000000000000E+00   0.00000000000000E+00   0.00000000000000E+00   0.00000000000000E+00   1.17915772962585E-15
      0.00000000000000E+00   1.17915772962585E-15   1.16799139343578E-13  -2.60000000000000E+01  -2.60000000000000E+01
      0.00000000000000E+00   0.00000000000000E+00  -1.18340188071436E-15   0.00000000000000E+00  -1.18340188071436E-15
     -1.16799139343578E-13
      2.70000000000000E-01