DF-ISE text

Info {
  version   = 1.0
  type      = xyplot
  datasets  = [
    "frequency"
    "v(a)" "v(c)" "a(a,a)" "c(a,a)" "a(a,c)"
    "c(a,c)" "a(c,a)" "c(c,a)" "a(c,c)" "c(c,c)" ]
  functions = [
    Frequency
    Voltage Voltage Admittance Capacitance Admittance
    Capacitance Admittance Capacitance Admittance Capacitance ]
}

Data {
      1.00000000000000E+04
      0.00000000000000E+00   0.00000000000000E+00   4.76878341230905E-10   2.58777543834888E-14  -9.34263231306263E-12
     -2.58777543841082E-14  -9.34262212989202E-12  -2.58777543850849E-14  -1.33073212557438E-08   2.58777543853835E-14
      1.00000000000000E+04
     -1.00000000000000E+00   0.00000000000000E+00   4.77334102627430E-10   2.54334607351234E-14  -9.88861664150074E-12
     -2.54334607364149E-14  -9.88862972659013E-12  -2.54334607353196E-14  -1.31139265031516E-08   2.54334607365700E-14
      1.00000000000000E+04
     -2.00000000000000E+00   0.00000000000000E+00   4.68674636093450E-10   1.13016116599375E-14  -1.77674371269232E-12
     -1.13016116601211E-14  -1.77675302851966E-12  -1.13016116595834E-14  -1.30598428174306E-08   1.13016116599063E-14
      1.00000000000000E+04
     -3.00000000000000E+00   0.00000000000000E+00   4.68218874696925E-10   9.16900030725894E-15  -1.19256827189068E-12
     -9.16900030730327E-15  -1.19255212107795E-12  -9.16900030777966E-15  -1.30937210812390E-08   9.16900030789711E-15
      1.00000000000000E+04
     -4.00000000000000E+00   0.00000000000000E+00   4.68066954231417E-10   8.71515297240215E-15  -1.11881293484500E-12
     -8.71515297224243E-15  -1.11881226968544E-12  -8.71515297217710E-15  -1.30932653198425E-08   8.71515297202138E-15
      1.00000000000000E+04
     -5.00000000000000E+00   0.00000000000000E+00   4.68066954231417E-10   4.73492942742937E-15  -1.10879295332659E-12
     -4.73492942838186E-15  -1.10878285323135E-12  -4.73492942869296E-15  -1.31658833023555E-08   4.73492942957482E-15
      1.00000000000000E+04
     -6.00000000000000E+00   0.00000000000000E+00   4.68218874696925E-10   1.31112438019139E-15  -1.43892006551755E-12
     -1.31112437901660E-15  -1.43891821337721E-12  -1.31112437907809E-15  -1.33995369783074E-08   1.31112437792463E-15
      1.00000000000000E+04
     -7.00000000000000E+00   0.00000000000000E+00   4.67459272369383E-10   1.00360417464710E-15  -1.28261916716867E-14
     -1.00360417466386E-15  -1.28274127635553E-14  -1.00360417466096E-15  -1.31534258241838E-08   1.00360417467749E-15
      1.00000000000000E+04
     -8.00000000000000E+00   0.00000000000000E+00   4.67459272369383E-10   7.99549679820656E-16  -7.16399302441441E-15
     -7.99549679833229E-16  -7.16375055738052E-15  -7.99549679833427E-16  -1.31753023712170E-08   7.99549679845955E-16
      1.00000000000000E+04
     -9.00000000000000E+00   0.00000000000000E+00   4.67459272369383E-10   7.59059987096445E-16  -6.48971407301336E-15
     -7.59059987107519E-16  -6.48934239604843E-15  -7.59059987108293E-16  -1.31023805477730E-08   7.59059987119155E-16
      1.00000000000000E+04
     -1.00000000000000E+01   0.00000000000000E+00   4.67459272369383E-10   6.72230700151631E-16  -4.96103590179714E-15
     -6.72230700160005E-16  -4.96054100550774E-15  -6.72230700161177E-16  -1.31825945535614E-08   6.72230700169320E-16
      1.00000000000000E+04
     -1.10000000000000E+01   0.00000000000000E+00   4.67459272369383E-10   6.31905476162639E-16  -4.28801691565933E-15
     -6.31905476173752E-16  -4.28844999137704E-15  -6.31905476172456E-16  -1.33773565903432E-08   6.31905476183203E-16
      1.00000000000000E+04
     -1.20000000000000E+01   0.00000000000000E+00   4.67459272369383E-10   5.98048631491099E-16  -3.82227106243008E-15
     -5.98048631498739E-16  -3.82234713122085E-15  -5.98048631498931E-16  -1.30713887728093E-08   5.98048631505895E-16
      1.00000000000000E+04
     -1.30000000000000E+01   0.00000000000000E+00   4.67459272369383E-10   5.41547397903461E-16  -2.91955492870542E-15
     -5.41547397910774E-16  -2.91919215260001E-15  -5.41547397911475E-16  -1.30944806835665E-08   5.41547397917830E-16
      1.00000000000000E+04
     -1.40000000000000E+01   0.00000000000000E+00   4.67459272369383E-10   5.31501395449173E-16  -2.86366111293730E-15
     -5.31501395458451E-16  -2.86305886458245E-15  -5.31501395458783E-16  -1.31699851549242E-08   5.31501395467193E-16
      1.00000000000000E+04
     -1.50000000000000E+01   0.00000000000000E+00   4.67459272369383E-10   5.16552962097925E-16  -2.69022649036900E-15
     -5.16552962105969E-16  -2.68960252864485E-15  -5.16552962106510E-16  -1.31481086078910E-08   5.16552962113823E-16
      1.00000000000000E+04
     -1.60000000000000E+01   0.00000000000000E+00   4.67459272369383E-10   4.79579129611588E-16  -2.25964742488103E-15
     -4.79579129618815E-16  -2.25929211700522E-15  -4.79579129619389E-16  -1.31818349512339E-08   4.79579129626013E-16
      1.00000000000000E+04
     -1.70000000000000E+01   0.00000000000000E+00   4.67459272369383E-10   4.53797576021785E-16  -1.91088149773219E-15
     -4.53797576028120E-16  -1.91170331025437E-15  -4.53797576027499E-16  -1.32681257756427E-08   4.53797576033449E-16
      1.00000000000000E+04
     -1.80000000000000E+01   0.00000000000000E+00   4.67459272369383E-10   4.51661959988722E-16  -1.86085058999183E-15
     -4.51661959994535E-16  -1.85956068218394E-15  -4.51661959996274E-16  -1.31601103246662E-08   4.51661960001919E-16
      1.00000000000000E+04
     -1.90000000000000E+01   0.00000000000000E+00   4.67459272369383E-10   4.45494962677349E-16  -1.86847739489675E-15
     -4.45494962684348E-16  -1.86847999911008E-15  -4.45494962684236E-16  -1.32327283071792E-08   4.45494962691016E-16
      1.00000000000000E+04
     -2.00000000000000E+01   0.00000000000000E+00   4.67459272369383E-10   4.19174051179663E-16  -1.63723609544201E-15
     -4.19174051186428E-16  -1.63688487670504E-15  -4.19174051186535E-16  -1.31648198590969E-08   4.19174051192738E-16
      1.00000000000000E+04
     -2.10000000000000E+01   0.00000000000000E+00   4.67459272369383E-10   3.94079820636337E-16  -1.32675759131341E-15
     -3.94079820644599E-16  -1.32667964479465E-15  -3.94079820643165E-16  -1.29094415565773E-08   3.94079820651497E-16
      1.00000000000000E+04
     -2.20000000000000E+01   0.00000000000000E+00   4.67459272369383E-10   3.92774797943013E-16  -1.35251505199748E-15
     -3.92774797948688E-16  -1.35252539198303E-15  -3.92774797948874E-16  -1.30016572791409E-08   3.92774797953839E-16
      1.00000000000000E+04
     -2.30000000000000E+01   0.00000000000000E+00   4.67459272369383E-10   3.90998161775617E-16  -1.28457560371206E-15
     -3.90998161780950E-16  -1.28432772265781E-15  -3.90998161781679E-16  -1.32207265904040E-08   3.90998161786093E-16
      1.00000000000000E+04
     -2.40000000000000E+01   0.00000000000000E+00   4.67459272369383E-10   3.85662506792636E-16  -1.30822058822083E-15
     -3.85662506797521E-16  -1.30772896059711E-15  -3.85662506798470E-16  -1.31903424973023E-08   3.85662506802594E-16
      1.00000000000000E+04
     -2.50000000000000E+01   0.00000000000000E+00   4.67459272369383E-10   3.62826500979907E-16  -1.11492180711917E-15
     -3.62826500985825E-16  -1.11415168218374E-15  -3.62826500986253E-16  -1.31798599851823E-08   3.62826500991578E-16
      1.00000000000000E+04
     -2.60000000000000E+01   0.00000000000000E+00   4.67459272369383E-10   3.48070768962923E-16  -9.28910410942531E-16
     -3.48070768968321E-16  -9.28856481599634E-16  -3.48070768968226E-16  -1.31241051743407E-08   3.48070768973866E-16
      1.00000000000000E+04
     -2.70000000000000E+01   0.00000000000000E+00   4.67459272369383E-10   3.47415276420041E-16  -9.90116212304707E-16
     -3.47415276423079E-16  -9.89794790433280E-16  -3.47415276424672E-16  -1.30879481035497E-08   3.47415276428464E-16
      1.00000000000000E+04
     -2.80000000000000E+01   0.00000000000000E+00   4.67459272369383E-10   3.46536667587391E-16  -8.98749502528592E-16
     -3.46536667593586E-16  -8.98553547655183E-16  -3.46536667593114E-16  -1.30686542044301E-08   3.46536667598910E-16
      1.00000000000000E+04
     -2.90000000000000E+01   0.00000000000000E+00   4.67459272369383E-10   3.44632684580374E-16  -9.10883719920773E-16
     -3.44632684584353E-16  -9.10985723340905E-16  -3.44632684585036E-16  -1.30271799173463E-08   3.44632684588701E-16
      1.00000000000000E+04
     -3.00000000000000E+01   0.00000000000000E+00   4.67459272369383E-10   3.38541208080579E-16  -9.17201978734759E-16
     -3.38541208084186E-16  -9.16759306107966E-16  -3.38541208085356E-16  -1.32220938745936E-08   3.38541208088803E-16
      1.00000000000000E+04
     -3.10000000000000E+01   0.00000000000000E+00   4.67459272369383E-10   3.17992899697711E-16  -7.40941748858174E-16
     -3.17992899701067E-16  -7.41119653115456E-16  -3.17992899702095E-16  -1.31330684818057E-08   3.17992899704838E-16
      1.00000000000000E+04
     -3.20000000000000E+01   0.00000000000000E+00   4.67459272369383E-10   3.12744567705631E-16  -7.11341977364932E-16
     -3.12744567711280E-16  -7.11202626120428E-16  -3.12744567710656E-16  -1.30877961830842E-08   3.12744567716367E-16
      1.00000000000000E+04
     -3.30000000000000E+01   0.00000000000000E+00   4.67459272369383E-10   3.12677186100061E-16  -7.57120210855572E-16
     -3.12677186104135E-16  -7.57026337967299E-16  -3.12677186104773E-16  -1.32702526621598E-08   3.12677186108244E-16
      1.00000000000000E+04
     -3.40000000000000E+01   0.00000000000000E+00   4.67459272369383E-10   3.12658466631572E-16  -6.68596835536411E-16
     -3.12658466636792E-16  -6.68636780908748E-16  -3.12658466636467E-16  -1.30569563285860E-08   3.12658466641464E-16
      1.00000000000000E+04
     -3.50000000000000E+01   0.00000000000000E+00   4.67459272369383E-10   3.12638051791058E-16  -6.67107415637941E-16
     -3.12638051795817E-16  -6.66902939842831E-16  -3.12638051795947E-16  -1.31408164255466E-08   3.12638051800961E-16
      1.00000000000000E+04
     -3.60000000000000E+01   0.00000000000000E+00   4.67459272369383E-10   3.12615250812689E-16  -6.66463933510250E-16
     -3.12615250817353E-16  -6.66288295341820E-16  -3.12615250817508E-16  -1.31263839813233E-08   3.12615250821529E-16
      1.00000000000000E+04
     -3.70000000000000E+01   0.00000000000000E+00   4.67459272369383E-10   3.12589607539661E-16  -6.65872576812427E-16
     -3.12589607544574E-16  -6.65237862586252E-16  -3.12589607544824E-16  -1.32854447087106E-08   3.12589607549113E-16
      1.00000000000000E+04
     -3.80000000000000E+01   0.00000000000000E+00   4.67459272369383E-10   3.12560547977368E-16  -6.65786541913449E-16
     -3.12560547981136E-16  -6.65339345113697E-16  -3.12560547982069E-16  -1.29167337389217E-08   3.12560547985382E-16
      1.00000000000000E+04
     -3.90000000000000E+01   0.00000000000000E+00   4.67459272369383E-10   3.12527337760993E-16  -6.65198334680915E-16
     -3.12527337765481E-16  -6.65113959665346E-16  -3.12527337765673E-16  -1.32003692480259E-08   3.12527337770406E-16
      1.00000000000000E+04
     -4.00000000000000E+01   0.00000000000000E+00   4.67459272369383E-10   3.12489024225816E-16  -6.64893965217599E-16
     -3.12489024230868E-16  -6.64865127962332E-16  -3.12489024230696E-16  -1.32457934672129E-08   3.12489024235228E-16
      1.00000000000000E+04
     -4.10000000000000E+01   0.00000000000000E+00   4.67459272369383E-10   3.12444351771505E-16  -6.64929167364081E-16
     -3.12444351776577E-16  -6.64927890681616E-16  -3.12444351776511E-16  -1.33519858726033E-08   3.12444351781368E-16
      1.00000000000000E+04
     -4.20000000000000E+01   0.00000000000000E+00   4.67459272369383E-10   3.12391632822978E-16  -6.65624668499851E-16
     -3.12391632826515E-16  -6.64985416126238E-16  -3.12391632827685E-16  -1.32365263188169E-08   3.12391632830996E-16
      1.00000000000000E+04
     -4.30000000000000E+01   0.00000000000000E+00   4.67459272369383E-10   3.12328539151093E-16  -6.65385058844060E-16
     -3.12328539156278E-16  -6.65016271888699E-16  -3.12328539156132E-16  -1.32725314691424E-08   3.12328539160992E-16
      1.00000000000000E+04
     -4.40000000000000E+01   0.00000000000000E+00   4.67459272369383E-10   3.12251743229390E-16  -6.66551757741753E-16
     -3.12251743232918E-16  -6.66207360212650E-16  -3.12251743233881E-16  -1.30821751258604E-08   3.12251743237083E-16
      1.00000000000000E+04
     -4.50000000000000E+01   0.00000000000000E+00   4.67459272369383E-10   3.12156275129195E-16  -6.67081420269568E-16
     -3.12156275133760E-16  -6.66489034753575E-16  -3.12156275134139E-16  -1.28972879193366E-08   3.12156275138286E-16
      1.00000000000000E+04
     -4.60000000000000E+01   0.00000000000000E+00   4.67459272369383E-10   3.12034339190797E-16  -6.68414248271323E-16
     -3.12034339195044E-16  -6.68393785600909E-16  -3.12034339195346E-16  -1.31509950967357E-08   3.12034339199382E-16
      1.00000000000000E+04
     -4.70000000000000E+01   0.00000000000000E+00   4.67459272369383E-10   3.11873034257270E-16  -6.70142269129434E-16
     -3.11873034261342E-16  -6.69816334743153E-16  -3.11873034261958E-16  -1.30502718281036E-08   3.11873034265886E-16
      1.00000000000000E+04
     -4.80000000000000E+01   0.00000000000000E+00   4.67459272369383E-10   3.11649563207294E-16  -6.72120194239138E-16
     -3.11649563212220E-16  -6.71842755297877E-16  -3.11649563212245E-16  -1.30710849318782E-08   3.11649563217206E-16
      1.00000000000000E+04
     -4.90000000000000E+01   0.00000000000000E+00   4.67459272369383E-10   3.11319886781716E-16  -6.75365537557679E-16
     -3.11319886786374E-16  -6.75367968209302E-16  -3.11319886786354E-16  -1.31259282199268E-08   3.11319886790890E-16
      1.00000000000000E+04
     -5.00000000000000E+01   0.00000000000000E+00   4.67459272369383E-10   3.10787446824589E-16  -6.79560525176418E-16
     -3.10787446829958E-16  -6.79410396052951E-16  -3.10787446829487E-16  -1.30750348639815E-08   3.10787446835190E-16
      1.00000000000000E+04
     -5.10000000000000E+01   0.00000000000000E+00   4.67459272369383E-10   3.09796879155029E-16  -6.85934315433650E-16
     -3.09796879161067E-16  -6.85241012042409E-16  -3.09796879160415E-16  -1.31432471529947E-08   3.09796879166531E-16
      1.00000000000000E+04
     -5.20000000000000E+01   0.00000000000000E+00   4.67459272369383E-10   3.07443767164633E-16  -6.94722039588125E-16
     -3.07443767170434E-16  -6.94656322739893E-16  -3.07443767169694E-16  -1.30586274537066E-08   3.07443767175352E-16
      1.00000000000000E+04
     -5.30000000000000E+01   0.00000000000000E+00   4.67459272369383E-10   2.99340733716726E-16  -6.74733276665314E-16
     -2.99340733720670E-16  -6.74897087597389E-16  -2.99340733721066E-16  -1.31046593547556E-08   2.99340733724710E-16
      1.00000000000000E+04
     -5.40000000000000E+01   0.00000000000000E+00   4.67459272369383E-10   2.86427825215218E-16  -5.58431819381099E-16
     -2.86427825219496E-16  -5.58457212828907E-16  -2.86427825219505E-16  -1.30642485109304E-08   2.86427825223302E-16
      1.00000000000000E+04
     -5.50000000000000E+01   0.00000000000000E+00   4.67459272369383E-10   2.84254572838435E-16  -5.99240921550444E-16
     -2.84254572841231E-16  -5.99093485230549E-16  -2.84254572842423E-16  -1.31408164255466E-08   2.84254572845211E-16
      1.00000000000000E+04
     -5.60000000000000E+01   0.00000000000000E+00   4.67459272369383E-10   2.84206181362483E-16  -6.04792140676159E-16
     -2.84206181367287E-16  -6.04796943451015E-16  -2.84206181366923E-16  -1.30201915759329E-08   2.84206181371420E-16
      1.00000000000000E+04
     -5.70000000000000E+01   0.00000000000000E+00   4.67459272369383E-10   2.84201533237297E-16  -5.35675573622376E-16
     -2.84201533241145E-16  -5.35385240271190E-16  -2.84201533241744E-16  -1.32702526621598E-08   2.84201533245053E-16
      1.00000000000000E+04
     -5.80000000000000E+01   0.00000000000000E+00   4.67459272369383E-10   2.84197249208654E-16  -5.32437516614701E-16
     -2.84197249212205E-16  -5.31992786042628E-16  -2.84197249213113E-16  -1.32214861927316E-08   2.84197249216232E-16
      1.00000000000000E+04
     -5.90000000000000E+01   0.00000000000000E+00   4.67459272369383E-10   2.84192745115266E-16  -5.32396574821596E-16
     -2.84192745118565E-16  -5.32293735286212E-16  -2.84192745119291E-16  -1.31063304798762E-08   2.84192745122463E-16
      1.00000000000000E+04
     -6.00000000000000E+01   0.00000000000000E+00   4.67459272369383E-10   2.84187993687655E-16  -5.31907826728128E-16
     -2.84187993692609E-16  -5.31711940072314E-16  -2.84187993692383E-16  -1.30964556496181E-08   2.84187993696635E-16
      1.00000000000000E+04
     -6.10000000000000E+01   0.00000000000000E+00   4.67459272369383E-10   2.84182972709683E-16  -5.31541283067071E-16
     -2.84182972715494E-16  -5.31367520823178E-16  -2.84182972714522E-16  -1.31427913915982E-08   2.84182972719831E-16
      1.00000000000000E+04
     -6.20000000000000E+01   0.00000000000000E+00   4.67459272369383E-10   2.84177657632832E-16  -5.32311206046863E-16
     -2.84177657636840E-16  -5.32217337302864E-16  -2.84177657637252E-16  -1.32875715952277E-08   2.84177657640441E-16
      1.00000000000000E+04
     -6.30000000000000E+01   0.00000000000000E+00   4.67459272369383E-10   2.84172021025478E-16  -5.32377020429106E-16
     -2.84172021029237E-16  -5.31999193683853E-16  -2.84172021029816E-16  -1.29554734576263E-08   2.84172021033162E-16
      1.00000000000000E+04
     -6.40000000000000E+01   0.00000000000000E+00   4.67459272369383E-10   2.84166032019448E-16  -5.32159059403968E-16
     -2.84166032023968E-16  -5.32209316447639E-16  -2.84166032023791E-16  -1.30716926137403E-08   2.84166032027919E-16
      1.00000000000000E+04
     -6.50000000000000E+01   0.00000000000000E+00   4.67459272369383E-10   2.84159655786634E-16  -5.32713771221591E-16
     -2.84159655789916E-16  -5.32623106909414E-16  -2.84159655790759E-16  -1.32298418183345E-08   2.84159655793808E-16
      1.00000000000000E+04
     -6.60000000000000E+01   0.00000000000000E+00   4.67459272369383E-10   2.84152852824732E-16  -5.32828348628031E-16
     -2.84152852827884E-16  -5.32705160423210E-16  -2.84152852828784E-16  -1.31885194517162E-08   2.84152852831312E-16
      1.00000000000000E+04
     -6.70000000000000E+01   0.00000000000000E+00   4.67459272369383E-10   2.84145578137892E-16  -5.32654661466111E-16
     -2.84145578141723E-16  -5.32194469679627E-16  -2.84145578142236E-16  -1.31801638261133E-08   2.84145578146177E-16
      1.00000000000000E+04
     -6.80000000000000E+01   0.00000000000000E+00   4.67459272369383E-10   2.84137780228263E-16  -5.32704773176163E-16
     -2.84137780232344E-16  -5.32658923251100E-16  -2.84137780232575E-16  -1.31475009260290E-08   2.84137780236570E-16
      1.00000000000000E+04
     -6.90000000000000E+01   0.00000000000000E+00   4.67459272369383E-10   2.84129399860258E-16  -5.33150267039152E-16
     -2.84129399863450E-16  -5.32951441198012E-16  -2.84129399864344E-16  -1.30984306156698E-08   2.84129399867519E-16
      1.00000000000000E+04
     -7.00000000000000E+01   0.00000000000000E+00   4.67459272369383E-10   2.84120368620482E-16  -5.32644188369706E-16
     -2.84120368625616E-16  -5.32382316637820E-16  -2.84120368625282E-16  -1.34812701887510E-08   2.84120368630014E-16
      1.00000000000000E+04
     -7.10000000000000E+01   0.00000000000000E+00   4.67459272369383E-10   2.84110606930183E-16  -5.33382605025355E-16
     -2.84110606933654E-16  -5.32828816559882E-16  -2.84110606934484E-16  -1.31236494129442E-08   2.84110606937386E-16
      1.00000000000000E+04
     -7.20000000000000E+01   0.00000000000000E+00   4.67459272369383E-10   2.84100021743363E-16  -5.33825205116934E-16
     -2.84100021746380E-16  -5.33779801689201E-16  -2.84100021747376E-16  -1.32485280355921E-08   2.84100021749817E-16
      1.00000000000000E+04
     -7.30000000000000E+01   0.00000000000000E+00   4.67459272369383E-10   2.84088503584007E-16  -5.33649079209741E-16
     -2.84088503588012E-16  -5.33338272001505E-16  -2.84088503588299E-16  -1.31623891316488E-08   2.84088503592248E-16
      1.00000000000000E+04
     -7.40000000000000E+01   0.00000000000000E+00   4.67459272369383E-10   2.84075922640796E-16  -5.34104808650076E-16
     -2.84075922644605E-16  -5.34023525709311E-16  -2.84075922645091E-16  -1.31320050385471E-08   2.84075922648357E-16
      1.00000000000000E+04
     -7.50000000000000E+01   0.00000000000000E+00   4.67459272369383E-10   2.84062123979283E-16  -5.34293757341808E-16
     -2.84062123983293E-16  -5.34074457654853E-16  -2.84062123983607E-16  -1.31250166971337E-08   2.84062123987407E-16
      1.00000000000000E+04
     -7.60000000000000E+01   0.00000000000000E+00   4.67459272369383E-10   2.84046921118376E-16  -5.34859714234890E-16
     -2.84046921121771E-16  -5.34438227685487E-16  -2.84046921122545E-16  -1.31769734963376E-08   2.84046921126287E-16
      1.00000000000000E+04
     -7.70000000000000E+01   0.00000000000000E+00   4.67459272369383E-10   2.84030087702876E-16  -5.35100526122974E-16
     -2.84030087706684E-16  -5.34962348045999E-16  -2.84030087707102E-16  -1.31962673954572E-08   2.84030087710672E-16
      1.00000000000000E+04
     -7.80000000000000E+01   0.00000000000000E+00   4.67459272369383E-10   2.84011346247011E-16  -5.35093399128497E-16
     -2.84011346252060E-16  -5.34619973453782E-16  -2.84011346251898E-16  -1.33588222935512E-08   2.84011346256317E-16
      1.00000000000000E+04
     -7.90000000000000E+01   0.00000000000000E+00   4.67459272369383E-10   2.83990352830349E-16  -5.36098367599242E-16
     -2.83990352833559E-16  -5.35652197128104E-16  -2.83990352834497E-16  -1.30416123615696E-08   2.83990352837686E-16
      1.00000000000000E+04
     -8.00000000000000E+01   0.00000000000000E+00   4.67459272369383E-10   2.83966675885784E-16  -5.36276455558255E-16
     -2.83966675889596E-16  -5.35810306178362E-16  -2.83966675890092E-16  -1.30309779289840E-08   2.83966675893419E-16
      1.00000000000000E+04
     -8.10000000000001E+01   0.00000000000000E+00   4.67459272369383E-10   2.83939766421085E-16  -5.37151771583133E-16
     -2.83939766423947E-16  -5.36954005349589E-16  -2.83939766425148E-16  -1.34115386950826E-08   2.83939766428119E-16
      1.00000000000000E+04
     -8.20000000000001E+01   0.00000000000000E+00   4.67459272369383E-10   2.83908915260740E-16  -5.37104698315830E-16
     -2.83908915264865E-16  -5.36905163180391E-16  -2.83908915265002E-16  -1.30695657272232E-08   2.83908915269306E-16
      1.00000000000000E+04
     -8.30000000000001E+01   0.00000000000000E+00   4.67459272369383E-10   2.83873190229059E-16  -5.37599282113027E-16
     -2.83873190233468E-16  -5.37753963834537E-16  -2.83873190233361E-16  -1.30897711491358E-08   2.83873190237236E-16
      1.00000000000000E+04
     -8.40000000000001E+01   0.00000000000000E+00   4.67459272369383E-10   2.83831341335785E-16  -5.38506827343245E-16
     -2.83831341339382E-16  -5.38168718091607E-16  -2.83831341340043E-16  -1.31552488697699E-08   2.83831341343853E-16
      1.00000000000000E+04
     -8.50000000000001E+01   0.00000000000000E+00   4.67459272369383E-10   2.83781653277504E-16  -5.39141074569709E-16
     -2.83781653281279E-16  -5.38757537641343E-16  -2.83781653281800E-16  -1.30966075700837E-08   2.83781653285157E-16
      1.00000000000000E+04
     -8.60000000000001E+01   0.00000000000000E+00   4.67459272369383E-10   2.83721707640117E-16  -5.39497341089391E-16
     -2.83721707645275E-16  -5.39471484839481E-16  -2.83721707644642E-16  -1.31423356302017E-08   2.83721707649264E-16
      1.00000000000000E+04
     -8.70000000000001E+01   0.00000000000000E+00   4.67459272369383E-10   2.83647983433810E-16  -5.40646676355880E-16
     -2.83647983438876E-16  -5.40209508626180E-16  -2.83647983438694E-16  -1.32046230210601E-08   2.83647983443101E-16
      1.00000000000000E+04
     -8.80000000000001E+01   0.00000000000000E+00   4.67459272369383E-10   2.83555151545101E-16  -5.42024736447907E-16
     -2.83555151549555E-16  -5.42323480222478E-16  -2.83555151549330E-16  -1.31262320608578E-08   2.83555151553230E-16
      1.00000000000000E+04
     -8.90000000000001E+01   0.00000000000000E+00   4.67459272369383E-10   2.83434751784987E-16  -5.43760103067290E-16
     -2.83434751788957E-16  -5.43697126237369E-16  -2.83434751789395E-16  -1.32729872305389E-08   2.83434751792420E-16
      1.00000000000000E+04
     -9.00000000000001E+01   0.00000000000000E+00   4.67459272369383E-10   2.83272518862387E-16  -5.45172120544636E-16
     -2.83272518867251E-16  -5.45060118055110E-16  -2.83272518866836E-16  -1.32697969007632E-08   2.83272518871810E-16
      1.00000000000000E+04
     -9.10000000000001E+01   0.00000000000000E+00   4.67459272369383E-10   2.83042437633467E-16  -5.47806007942126E-16
     -2.83042437638057E-16  -5.47582343435193E-16  -2.83042437638044E-16  -1.32219419541281E-08   2.83042437642106E-16
      1.00000000000000E+04
     -9.20000000000001E+01   0.00000000000000E+00   4.67459272369383E-10   2.82691754937714E-16  -5.51342116179819E-16
     -2.82691754941420E-16  -5.51379475159906E-16  -2.82691754941799E-16  -1.30912903537909E-08   2.82691754945476E-16
      1.00000000000000E+04
     -9.30000000000001E+01   0.00000000000000E+00   4.67459272369383E-10   2.82096073785815E-16  -5.55921546046387E-16
     -2.82096073789672E-16  -5.55937799642005E-16  -2.82096073789975E-16  -1.32995733120029E-08   2.82096073793929E-16
      1.00000000000000E+04
     -9.40000000000001E+01   0.00000000000000E+00   4.67459272369383E-10   2.80887577629356E-16  -5.62481114876252E-16
     -2.80887577632726E-16  -5.62088962003680E-16  -2.80887577633591E-16  -1.30744271821194E-08   2.80887577636589E-16
      1.00000000000000E+04
     -9.50000000000001E+01   0.00000000000000E+00   4.67459272369383E-10   2.77585602225294E-16  -5.64519024769896E-16
     -2.77585602230382E-16  -5.64591290476515E-16  -2.77585602229733E-16  -1.31907982586989E-08   2.77585602234670E-16
      1.00000000000000E+04
     -9.60000000000001E+01   0.00000000000000E+00   4.67459272369383E-10   2.69052207990932E-16  -5.14313298336596E-16
     -2.69052207995149E-16  -5.14031357357278E-16  -2.69052207995172E-16  -1.28956167942160E-08   2.69052207999193E-16
      1.00000000000000E+04
     -9.70000000000001E+01   0.00000000000000E+00   4.67459272369383E-10   2.62849774686006E-16  -4.71359019236870E-16
     -2.62849774689421E-16  -4.70945193155582E-16  -2.62849774690222E-16  -1.32043191801291E-08   2.62849774692748E-16
      1.00000000000000E+04
     -9.80000000000001E+01   0.00000000000000E+00   4.67459272369383E-10   2.60506571104435E-16  -5.29426109011233E-16
     -2.60506571108587E-16  -5.29092024988276E-16  -2.60506571108748E-16  -1.32658469686600E-08   2.60506571112327E-16
      1.00000000000000E+04
     -9.90000000000001E+01   0.00000000000000E+00   4.67459272369383E-10   2.60390209325512E-16  -4.87749563125055E-16
     -2.60390209329908E-16  -4.87725079235538E-16  -2.60390209329688E-16  -1.31245609357372E-08   2.60390209333382E-16
      1.00000000000000E+04
     -1.00000000000000E+02   0.00000000000000E+00   4.67459272369383E-10   2.60384687523760E-16  -4.54630680624262E-16
     -2.60384687528702E-16  -4.54167655631437E-16  -2.60384687528167E-16  -1.30922018765839E-08   2.60384687533378E-16
      1.00000000000000E+04
     -1.00000000000000E+02   0.00000000000000E+00   4.67459272369383E-10   2.60384687524085E-16  -4.55191183380776E-16
     -2.60384687527491E-16  -4.55263521339246E-16  -2.60384687527941E-16  -1.30922018765839E-08   2.60384687530999E-16
      1.00000000000000E+04
     -1.01000000000000E+02   0.00000000000000E+00   4.67459272369383E-10   2.60381101826448E-16  -4.40210251586918E-16
     -2.60381101829959E-16  -4.40085306793516E-16  -2.60381101830456E-16  -1.29715770269702E-08   2.60381101833740E-16
      1.00000000000000E+04
     -1.02000000000000E+02   0.00000000000000E+00   4.67459272369383E-10   2.60377338839943E-16  -4.39814731469363E-16
     -2.60377338843530E-16  -4.39426603172371E-16  -2.60377338843966E-16  -1.31701370753897E-08   2.60377338847081E-16
      1.00000000000000E+04
     -1.03000000000000E+02   0.00000000000000E+00   4.67459272369383E-10   2.60373330272100E-16  -4.39827823514972E-16
     -2.60373330275630E-16  -4.39687565020748E-16  -2.60373330275930E-16  -1.30007457563478E-08   2.60373330279423E-16
      1.00000000000000E+04
     -1.04000000000000E+02   0.00000000000000E+00   4.67459272369383E-10   2.60369036386295E-16  -4.39829421907357E-16
     -2.60369036390189E-16  -4.39772087846156E-16  -2.60369036390296E-16  -1.31430952325292E-08   2.60369036394118E-16
      1.00000000000000E+04
     -1.05000000000000E+02   0.00000000000000E+00   4.67459272369383E-10   2.60364403468578E-16  -4.40247022732127E-16
     -2.60364403471418E-16  -4.40156829735432E-16  -2.60364403472314E-16  -1.32552125360744E-08   2.60364403475053E-16
      1.00000000000000E+04
     -1.06000000000000E+02   0.00000000000000E+00   4.67459272369383E-10   2.60359353612633E-16  -4.40265851116781E-16
     -2.60359353615345E-16  -4.40081942914004E-16  -2.60359353616189E-16  -1.30531583169482E-08   2.60359353619110E-16
      1.00000000000000E+04
     -1.07000000000000E+02   0.00000000000000E+00   4.67459272369383E-10   2.60353765075528E-16  -4.39935048951092E-16
     -2.60353765079601E-16  -4.39468449059825E-16  -2.60353765079766E-16  -1.34341748444433E-08   2.60353765083272E-16
      1.00000000000000E+04
     -1.08000000000000E+02   0.00000000000000E+00   4.67459272369383E-10   2.60347430398757E-16  -4.40256726248523E-16
     -2.60347430402055E-16  -4.40145270032956E-16  -2.60347430402693E-16  -1.32100921578184E-08   2.60347430405410E-16
      1.00000000000000E+04
     -1.09000000000000E+02   0.00000000000000E+00   4.67459272369383E-10   2.60339953423945E-16  -4.40184162328890E-16
     -2.60339953427415E-16  -4.40064630936699E-16  -2.60339953427810E-16  -1.31239532538752E-08   2.60339953430987E-16
      1.00000000000000E+04
     -1.10000000000000E+02   0.00000000000000E+00   4.67459272369383E-10   2.60330459225779E-16  -4.39910744003235E-16